LAMMPS (7 Aug 2019)
processors         * 1 1 # manually assign processors to spatial regions
atom_style         meso
dimension          2
newton             on
boundary           f f p
units              lj
read_data          data.initial
  orthogonal box = (0 0 -0.001) to (4.001 8.001 0.001)
  1 by 1 by 1 MPI processor grid
  reading atoms ...
  15702 atoms
  reading velocities ...
  15702 velocities
  read_data CPU = 0.245356 secs

variable           h equal 0.03
variable           c equal 10.0 # soundspeed for Tait's EOS
variable           dt equal 0.1*${h}/${c} # upper limit of timestep based on CFL-like criterion
variable           dt equal 0.1*0.03/${c} 
variable           dt equal 0.1*0.03/10 
variable           nrun equal 15.0/${dt} # roughly estimate number of timesteps needed for 7.5 seconds
variable           nrun equal 15.0/0.0003 

group              bc    type 2 # assign group name "bc" to boundary particles (type 2)
6000 atoms in group bc
group              water type 1 # assign group name "water" to water particles (type 1)
9702 atoms in group water

set                type 1 meso/e 1000
  9702 settings made for meso/e
set		   type 2 meso/e 41670
  6000 settings made for meso/e

# use hybrid pairstyle which does density summation with cutoff ${h} every timestep (1)
pair_style         hybrid/overlay sph/rhosum 1 sph/taitwater sph/heatconduction
pair_coeff         * * sph/taitwater 1000.0 ${c} 1.0 ${h} # use target density of 1000, soundspeed ${c} for Tait's EOS
pair_coeff         * * sph/taitwater 1000.0 10 1.0 ${h} 
pair_coeff         * * sph/taitwater 1000.0 10 1.0 0.03 
pair_coeff         1 1 sph/rhosum ${h}
pair_coeff         1 1 sph/rhosum 0.03

pair_coeff	   * * sph/heatconduction 1.47e-3 ${h}
pair_coeff	   * * sph/heatconduction 1.47e-3 0.03


fix                gfix water gravity -9.81 vector 0 1 0 # add gravity. This fix also computes potential energy of mass in gravity field.
fix                2d_fix all enforce2d

variable   tempe 	atom  ((c_e_peratom-1000)/(0.2*4117)+300)
variable   tempera	atom  ((c_e_peratom-500)/(0.1*4117)+300)

compute            rho_peratom all meso/rho/atom
compute            e_peratom all meso/e/atom
compute            esph all reduce sum c_e_peratom
compute            ke all ke
variable           etot equal c_esph+c_ke+f_gfix




#                                     adjust nevery | min. allowed dt | max. allowed dt | max. travel distance per dt # // ${dt} ~= CFL criterion 0.1*h/c
fix                dtfix all dt/reset 1               NULL              ${dt}             0.0005 units box # use a variable timestep
fix                dtfix all dt/reset 1               NULL              0.0003             0.0005 units box 

# time-integrate position, velocities, internal energy and density of water particles
fix                integrate_water_fix water meso

# time-integrate only internal energy and density of boundary particles
fix                integrate_bc_fix bc meso/stationary
dump               dump_id all custom 100 dump.lammpstrj id type xs ys zs mass c_rho_peratom c_e_peratom fx fy v_tempe v_tempera
dump_modify        dump_id first yes
thermo             10
thermo_style       custom step ke c_esph v_etot f_gfix press time f_dtfix
thermo_modify      norm no

neigh_modify       every 5 delay 0 check no
variable           skin equal 0.3*${h}
variable           skin equal 0.3*0.03
neighbor           ${skin} bin # set Verlet list skin distance
neighbor           0.009 bin 
viscosity	   4P 1.856e-11 4209 0.04527 -3.376e-5

run                ${nrun}
run                50000
Neighbor list info ...
  update every 5 steps, delay 0 steps, check no
  max neighbors/atom: 2000, page size: 100000
  master list distance cutoff = 0.039
  ghost atom cutoff = 0.039
  binsize = 0.0195, bins = 206 411 1
  4 neighbor lists, perpetual/occasional/extra = 4 0 0
  (1) pair sph/rhosum, perpetual, skip from (4)
      attributes: full, newton on
      pair build: skip
      stencil: none
      bin: none
  (2) pair sph/taitwater, perpetual, half/full from (4)
      attributes: half, newton on
      pair build: halffull/newton
      stencil: none
      bin: none
  (3) pair sph/heatconduction, perpetual, copy from (2)
      attributes: half, newton on
      pair build: copy
      stencil: none
      bin: none
  (4) neighbor class addition, perpetual
      attributes: full, newton on
      pair build: full/bin/atomonly
      stencil: full/bin/2d
      bin: standard
Per MPI rank memory allocation (min/avg/max) = 11.82 | 11.82 | 11.82 Mbytes
Step KinEng c_esph v_etot f_gfix Press Time f_dtfix 
       0            0  2.59722e+08 2.5974132e+08    19320.854   -1.1300451            0            0 
      10    78.554394 2.5972192e+08 2.5974132e+08    19320.223    15.619455 0.0023456035           10 
      20    79.923128 2.5972192e+08 2.5974132e+08    19318.545    24.636641 0.0045614117           18 
      30     55.14229 2.5972195e+08 2.5974132e+08    19315.063    10.813974 0.0073702753           28 
      40    32.820408 2.5972198e+08 2.5974132e+08    19309.692    4.2602387  0.010370275           28 
      50    50.870451 2.5972197e+08 2.5974132e+08     19302.56     11.40279  0.013358403           45 
      60    57.930232 2.5972197e+08 2.5974132e+08    19293.667    5.4629054  0.016358403           45 
      70    54.567848 2.5972198e+08 2.5974132e+08    19283.184    1.8551041  0.019358403           45 
      80    66.842334 2.5972198e+08 2.5974132e+08    19271.173     6.194329  0.022358403           45 
      90    81.295501 2.5972198e+08 2.5974132e+08    19257.635    3.7165395  0.025358403           45 
     100    88.248047 2.5972199e+08 2.5974132e+08    19242.579    2.1115469  0.028358403           45 
     110    102.58715 2.5972199e+08 2.5974132e+08    19226.045    6.7225987  0.031358403           45 
     120    122.55198 2.5972199e+08 2.5974132e+08    19208.081    9.6234042  0.034358403           45 
     130    137.14444 2.5972199e+08 2.5974132e+08    19188.706    10.177369  0.037358403           45 
     140    152.36833  2.59722e+08 2.5974132e+08    19167.921    12.579361  0.040358403           45 
     150     173.7573  2.59722e+08 2.5974132e+08    19145.743    16.112532  0.043358403           45 
     160    195.77629  2.59722e+08 2.5974132e+08    19122.204    18.527603  0.046358403           45 
     170    215.59716 2.5972201e+08 2.5974132e+08     19097.34    22.119588  0.049358403           45 
     180    236.88204 2.5972201e+08 2.5974132e+08    19071.177    26.709959  0.052358403           45 
     190    261.80128 2.5972202e+08 2.5974132e+08    19043.733    30.939013  0.055358403           45 
     200    287.00385 2.5972202e+08 2.5974132e+08    19015.025    35.071544  0.058358403           45 
     210    311.84428 2.5972202e+08 2.5974132e+08    18985.073    39.411768  0.061358403           45 
     220    338.90181 2.5972203e+08 2.5974132e+08    18953.894     43.97013  0.064358403           45 
     230    367.86207 2.5972203e+08 2.5974132e+08    18921.506    48.550278  0.067358403           45 
     240    396.79942 2.5972204e+08 2.5974132e+08    18887.927    53.388187  0.070358403           45 
     250    426.01299 2.5972204e+08 2.5974132e+08    18853.176    58.687435  0.073358403           45 
     260    456.98955 2.5972205e+08 2.5974132e+08    18817.274    64.489539  0.076358403           45 
     270    488.91722 2.5972205e+08 2.5974132e+08    18780.239    70.150233  0.079358403           45 
     280    520.66646 2.5972206e+08 2.5974132e+08    18742.475      75.7275  0.082328472          280 
     290    551.75075 2.5972206e+08 2.5974132e+08     18705.36    81.295336  0.085168226          290 
     300    584.18591 2.5972207e+08 2.5974132e+08    18667.138    87.174175   0.08801785          300 
     310    616.04341 2.5972208e+08 2.5974132e+08    18629.629    92.925429   0.09074664          310 
     320    646.73928 2.5972208e+08 2.5974132e+08    18593.123     98.85907  0.093343113          320 
     330    677.92832 2.5972209e+08 2.5974132e+08    18556.031    105.52016  0.095925693          330 
     340    708.81152 2.5972209e+08 2.5974132e+08    18519.695    112.71486  0.098405107          340 
     350    739.09873 2.597221e+08 2.5974132e+08    18484.364    120.17238   0.10077113          350 
     360    769.44633 2.597221e+08 2.5974132e+08    18448.969    128.06993   0.10309974          360 
     370    800.24627 2.5972211e+08 2.5974132e+08    18412.841    136.54069   0.10543617          370 
     380    830.78979 2.5972211e+08 2.5974132e+08    18376.701    145.24151   0.10773484          380 
     390     860.9205 2.5972212e+08 2.5974132e+08    18340.633    153.81816   0.10999278          390 
     400    890.93172 2.5972213e+08 2.5974132e+08    18304.217    162.00801   0.11223778          400 
     410      921.252 2.5972213e+08 2.5974132e+08    18267.146    169.63115    0.1144894          410 
     420    951.89043 2.5972214e+08 2.5974132e+08    18229.866    176.53098    0.1167213          420 
     430    983.10686 2.5972215e+08 2.5974132e+08    18192.299    182.82631   0.11893937          430 
     440    1015.1787 2.5972215e+08 2.5974132e+08     18153.86    188.79183   0.12117858          440 
     450    1047.6417 2.5972216e+08 2.5974132e+08    18114.747     194.5339   0.12342734          450 
     460    1079.8199 2.5972217e+08 2.5974132e+08    18075.851    200.01453   0.12563563          460 
     470    1111.9318 2.5972217e+08 2.5974132e+08    18037.228    205.23868   0.12780234          470 
     480    1144.1273 2.5972218e+08 2.5974132e+08    17998.758    210.21807   0.12993607          480 
     490    1176.3928 2.5972218e+08 2.5974132e+08     17960.28    215.00853   0.13204722          490 
     500    1208.4615 2.5972219e+08 2.5974132e+08    17922.015    219.61298   0.13412496          500 
     510    1240.0388 2.597222e+08 2.5974132e+08    17884.426    224.00847   0.13614592          510 
     520    1271.2324 2.597222e+08 2.5974132e+08    17847.503    228.26818   0.13811254          520 
     530    1302.0917 2.5972221e+08 2.5974132e+08    17811.163    232.44405   0.14003102          530 
     540    1332.6482 2.5972221e+08 2.5974132e+08    17775.287    236.57227   0.14190895          540 
     550    1362.9726 2.5972222e+08 2.5974132e+08    17739.762    240.66294   0.14375353          550 
     560    1393.1045 2.5972222e+08 2.5974132e+08    17704.544    244.67708   0.14556785          560 
     570     1422.964 2.5972223e+08 2.5974132e+08    17669.763    248.56127   0.14734627          570 
     580    1452.5938 2.5972223e+08 2.5974132e+08    17635.405    252.29842   0.14909041          580 
     590    1481.9945 2.5972224e+08 2.5974132e+08    17601.451    255.88679   0.15080204          590 
     600    1511.1379 2.5972224e+08 2.5974132e+08    17567.912    259.31916   0.15248155          600 
     610    1539.9454 2.5972225e+08 2.5974132e+08    17534.875    262.60767   0.15412524          610 
     620    1568.4956 2.5972225e+08 2.5974132e+08    17502.249     265.7952    0.1557384          620 
     630    1596.9159 2.5972225e+08 2.5974132e+08    17469.904    268.92593   0.15732811          630 
     640    1625.3312 2.5972226e+08 2.5974132e+08    17437.725    272.03801   0.15890035          640 
     650    1653.8092 2.5972226e+08 2.5974132e+08    17405.627    275.15205   0.16045964          650 
     660    1682.3836 2.5972226e+08 2.5974132e+08    17373.562    278.26362   0.16200854          660 
     670    1711.0454 2.5972227e+08 2.5974132e+08    17341.539    281.34683    0.1635468          670 
     680    1739.6918 2.5972227e+08 2.5974132e+08    17309.668    284.36735   0.16506947          680 
     690    1768.2985 2.5972227e+08 2.5974132e+08    17277.944    287.31292   0.16657699          690 
     700    1796.8246 2.5972228e+08 2.5974132e+08    17246.373    290.18365   0.16806932          700 
     710    1825.2742 2.5972228e+08 2.5974132e+08    17214.925    292.99602   0.16954817          710 
     720    1853.6907 2.5972228e+08 2.5974132e+08    17183.524    295.77417   0.17101725          720 
     730    1882.0935 2.5972229e+08 2.5974132e+08    17152.156    298.52584   0.17247736          730 
     740    1910.5403 2.5972229e+08 2.5974132e+08    17120.788    301.25573   0.17393015          740 
     750    1939.1103 2.5972229e+08 2.5974132e+08    17089.355    303.96286   0.17537875          750 
     760    1967.8509 2.597223e+08 2.5974132e+08    17057.808    306.64132   0.17682539          760 
     770    1996.7843 2.597223e+08 2.5974132e+08    17026.129     309.2828   0.17827094          770 
     780    2025.9003 2.597223e+08 2.5974132e+08    16994.331    311.87937   0.17971483          780 
     790    2055.1213 2.597223e+08 2.5974132e+08     16962.48    314.41941    0.1811541          790 
     800    2084.3748 2.5972231e+08 2.5974132e+08     16930.64    316.89087   0.18258588          800 
     810    2113.6686 2.5972231e+08 2.5974132e+08    16898.802    319.28692   0.18401074          810 
     820    2142.9994 2.5972231e+08 2.5974132e+08    16866.957     321.6026   0.18542924          820 
     830    2172.3297 2.5972231e+08 2.5974132e+08    16835.119    323.84064   0.18684084          830 
     840    2201.6152 2.5972232e+08 2.5974132e+08    16803.318    326.00769   0.18824435          840 
     850    2230.8586 2.5972232e+08 2.5974132e+08    16771.552    328.10973   0.18964003          850 
     860     2260.067 2.5972232e+08 2.5974132e+08    16739.813    330.16079   0.19102848          860 
     870    2289.2625 2.5972232e+08 2.5974132e+08    16708.076    332.17797   0.19241093          870 
     880    2318.4926 2.5972233e+08 2.5974132e+08    16676.298     334.1864   0.19378932          880 
     890    2347.8096 2.5972233e+08 2.5974132e+08    16644.435    336.21272   0.19516576          890 
     900    2377.2889 2.5972233e+08 2.5974132e+08    16612.452    338.28253   0.19654171          900 
     910    2406.9304 2.5972233e+08 2.5974132e+08    16580.391    340.41285   0.19791547          910 
     920    2436.7533 2.5972234e+08 2.5974132e+08    16548.261    342.60869   0.19928675          920 
     930    2466.7082 2.5972234e+08 2.5974132e+08    16516.122    344.86921   0.20065299          930 
     940    2496.7753 2.5972234e+08 2.5974132e+08    16483.994    347.18191    0.2020135          940 
     950      2526.97 2.5972234e+08 2.5974132e+08     16451.84    349.54093   0.20336995          950 
     960    2557.2895 2.5972234e+08 2.5974132e+08    16419.634    351.94637   0.20472352          960 
     970    2587.7316 2.5972235e+08 2.5974132e+08    16387.365    354.38677   0.20607478          970 
     980    2618.2859 2.5972235e+08 2.5974132e+08    16355.034    356.82516   0.20742385          980 
     990    2648.9138 2.5972235e+08 2.5974132e+08    16322.672    359.21776   0.20876956          990 
    1000    2679.5161 2.5972235e+08 2.5974132e+08    16290.383    361.99562   0.21010761         1000 
    1010    2709.8571 2.5972235e+08 2.5974132e+08    16258.177    364.10296   0.21143787         1010 
    1020     2740.182 2.5972235e+08 2.5974132e+08    16226.099    366.03925    0.2127586         1020 
    1030    2770.4309 2.5972236e+08 2.5974132e+08    16194.183    367.76131   0.21406842         1030 
    1040     2800.576 2.5972236e+08 2.5974132e+08    16162.396    369.25792   0.21536878         1040 
    1050     2830.567 2.5972236e+08 2.5974132e+08    16130.709    370.54785   0.21666097         1050 
    1060    2860.3455 2.5972236e+08 2.5974132e+08    16099.097    371.67917   0.21794603         1060 
    1070    2889.8913 2.5972236e+08 2.5974132e+08    16067.539    372.72653   0.21922481         1070 
    1080    2919.2521 2.5972237e+08 2.5974132e+08     16036.02    373.75793   0.22049799         1080 
    1090    2948.5163 2.5972237e+08 2.5974132e+08    16004.531    374.83582   0.22176601         1090 
    1100    2977.7695 2.5972237e+08 2.5974132e+08    15973.068    376.00986   0.22302902         1100 
    1110    3007.0795 2.5972237e+08 2.5974132e+08    15941.635     377.3113   0.22428695         1110 
    1120    3036.4976 2.5972237e+08 2.5974132e+08     15910.24    378.75015   0.22553955         1120 
    1130    3066.0315 2.5972238e+08 2.5974132e+08    15878.914    380.31404   0.22678562         1130 
    1140    3095.6974 2.5972238e+08 2.5974132e+08    15847.645    381.98411    0.2280257         1140 
    1150    3125.5193 2.5972238e+08 2.5974132e+08    15816.409    383.72625   0.22926083         1150 
    1160    3155.4933 2.5972238e+08 2.5974132e+08     15785.18      385.507   0.23049203         1160 
    1170    3185.5672 2.5972238e+08 2.5974132e+08    15753.952    387.28113   0.23171953         1170 
    1180     3215.622 2.5972238e+08 2.5974132e+08    15722.778    389.00725   0.23294136         1180 
    1190    3245.6195 2.5972238e+08 2.5974132e+08    15691.656    390.64869   0.23415755         1190 
    1200    3275.6103 2.5972238e+08 2.5974132e+08    15660.558    392.16595   0.23536928         1200 
    1210    3305.6391 2.5972239e+08 2.5974132e+08    15629.456    393.53971   0.23657764         1210 
    1220    3335.7715 2.5972239e+08 2.5974132e+08    15598.326    394.74701   0.23778359         1220 
    1230    3366.0432 2.5972239e+08 2.5974132e+08    15567.151    395.78794   0.23898781         1230 
    1240    3396.3989 2.5972239e+08 2.5974132e+08    15535.979    396.66826   0.24018851         1240 
    1250    3426.7636 2.5972239e+08 2.5974132e+08    15504.825    397.40455    0.2413851         1250 
    1260    3457.0827 2.5972239e+08 2.5974132e+08    15473.684     398.0232   0.24257783         1260 
    1270    3487.3045 2.5972239e+08 2.5974132e+08    15442.554    398.55957    0.2437669         1270 
    1280    3517.3889 2.5972239e+08 2.5974132e+08    15411.428    399.04348   0.24495253         1280 
    1290    3547.3343 2.5972239e+08 2.5974132e+08    15380.303    399.49483   0.24613497         1290 
    1300    3577.1549 2.5972239e+08 2.5974132e+08    15349.169    399.93327   0.24731455         1300 
    1310    3606.8622 2.597224e+08 2.5974132e+08    15318.019    400.37464   0.24849166         1310 
    1320    3636.4531 2.597224e+08 2.5974132e+08    15286.853    400.82948   0.24966626         1320 
    1330    3665.9165 2.597224e+08 2.5974132e+08    15255.714     401.2962   0.25083681         1330 
    1340    3695.2627 2.597224e+08 2.5974132e+08    15224.602    401.78212   0.25200334         1340 
    1350      3724.51 2.597224e+08 2.5974132e+08    15193.509    402.28959    0.2531662         1350 
    1360    3753.6963 2.597224e+08 2.5974132e+08    15162.425    402.81264   0.25432582         1360 
    1370    3782.8855 2.5972241e+08 2.5974132e+08    15131.337    403.34661    0.2554827         1370 
    1380    3812.1029 2.5972241e+08 2.5974132e+08    15100.234    403.89194   0.25663735         1380 
    1390    3841.3447 2.5972241e+08 2.5974132e+08    15069.107    404.44478   0.25779016         1390 
    1400    3870.6041 2.5972241e+08 2.5974132e+08    15037.948    405.01389   0.25894143         1400 
    1410    3899.8808 2.5972241e+08 2.5974132e+08    15006.757    405.59519   0.26009126         1410 
    1420    3929.1702 2.5972242e+08 2.5974132e+08    14975.536    406.18736    0.2612396         1420 
    1430    3958.4681 2.5972242e+08 2.5974132e+08    14944.291    406.78647   0.26238631         1430 
    1440      3987.74 2.5972242e+08 2.5974132e+08    14913.028    407.40056   0.26353118         1440 
    1450    4016.9663 2.5972242e+08 2.5974132e+08    14881.754    408.03809   0.26467405         1450 
    1460    4046.1386 2.5972242e+08 2.5974132e+08    14850.473    408.69954   0.26581481         1460 
    1470     4075.246 2.5972243e+08 2.5974132e+08     14819.19    409.38412   0.26695333         1470 
    1480    4104.2575 2.5972243e+08 2.5974132e+08    14787.945    410.09033   0.26808826         1480 
    1490     4133.177 2.5972243e+08 2.5974132e+08    14756.747    410.81003   0.26921924         1490 
    1500     4162.008 2.5972243e+08 2.5974132e+08    14725.595    411.54279   0.27034648         1500 
    1510    4190.7833 2.5972244e+08 2.5974132e+08    14694.482    412.27634   0.27147021         1510 
    1520    4219.5274 2.5972244e+08 2.5974132e+08    14663.404    413.00778    0.2725907         1520 
    1530    4248.2539 2.5972244e+08 2.5974132e+08    14632.356    413.72738   0.27370819         1530 
    1540    4276.9468 2.5972244e+08 2.5974132e+08    14601.333    414.43925   0.27482287         1540 
    1550    4305.6196 2.5972244e+08 2.5974132e+08    14570.332    415.13369   0.27593491         1550 
    1560    4334.2884 2.5972245e+08 2.5974132e+08    14539.354     415.8071   0.27704441         1560 
    1570    4362.9581 2.5972245e+08 2.5974132e+08    14508.396     416.4493   0.27815144         1570 
    1580    4391.6269 2.5972245e+08 2.5974132e+08    14477.459    417.06314   0.27925609         1580 
    1590    4420.2756 2.5972245e+08 2.5974132e+08    14446.542    417.64331   0.28035841         1590 
    1600    4448.8808 2.5972246e+08 2.5974132e+08    14415.645    418.18187   0.28145849         1600 
    1610    4477.4716 2.5972246e+08 2.5974132e+08    14384.768    418.66455   0.28255639         1610 
    1620    4506.0605 2.5972246e+08 2.5974132e+08    14353.911    419.08926   0.28365215         1620 
    1630    4534.6374 2.5972246e+08 2.5974132e+08    14323.075    419.45841   0.28474579         1630 
    1640    4563.1791 2.5972247e+08 2.5974132e+08    14292.261    419.76877   0.28583729         1640 
    1650    4591.6928 2.5972247e+08 2.5974132e+08    14261.473    420.01821    0.2869266         1650 
    1660    4620.1597 2.5972247e+08 2.5974132e+08    14230.713    420.22071   0.28801368         1660 
    1670    4648.5489 2.5972247e+08 2.5974132e+08    14199.984    420.39008   0.28909848         1670 
    1680    4676.8475 2.5972247e+08 2.5974132e+08    14169.285    420.52585   0.29018101         1680 
    1690    4705.0832 2.5972248e+08 2.5974132e+08    14138.619    420.63937   0.29126131         1690 
    1700    4733.2692 2.5972248e+08 2.5974132e+08    14107.983    420.74937   0.29233945         1700 
    1710    4761.3867 2.5972248e+08 2.5974132e+08    14077.378    420.86879   0.29341551         1710 
    1720    4789.4246 2.5972248e+08 2.5974132e+08    14046.803     421.0048   0.29448955         1720 
    1730    4817.4261 2.5972249e+08 2.5974132e+08    14016.256    421.16851   0.29556161         1730 
    1740    4845.4063 2.5972249e+08 2.5974132e+08     13985.74    421.38468   0.29663172         1740 
    1750    4873.3384 2.5972249e+08 2.5974132e+08    13955.255    421.65871   0.29769986         1750 
    1760    4901.2114 2.5972249e+08 2.5974132e+08    13924.801    422.00071   0.29876606         1760 
    1770    4929.0605 2.597225e+08 2.5974132e+08    13894.391    422.40698   0.29982994         1770 
    1780    4956.8695 2.597225e+08 2.5974132e+08    13864.043    422.89268    0.3008909         1780 
    1790    4984.6163 2.597225e+08 2.5974132e+08    13833.756     423.4608   0.30194901         1790 
    1800    5012.3136 2.597225e+08 2.5974132e+08    13803.529    424.11444   0.30300439         1800 
    1810    5039.9843 2.5972251e+08 2.5974132e+08    13773.358    424.84707   0.30405714         1810 
    1820    5067.6219 2.5972251e+08 2.5974132e+08    13743.244    425.65646   0.30510732         1820 
    1830    5095.2211 2.5972251e+08 2.5974132e+08    13713.186    426.55337   0.30615496         1830 
    1840     5122.768 2.5972251e+08 2.5974132e+08    13683.186    427.53311   0.30720003         1840 
    1850    5150.2298 2.5972252e+08 2.5974132e+08    13653.245    428.59647   0.30824249         1850 
    1860    5177.6188 2.5972252e+08 2.5974132e+08    13623.366    429.74481   0.30928229         1860 
    1870    5204.9564 2.5972252e+08 2.5974132e+08    13593.551    430.97437    0.3103194         1870 
    1880     5232.233 2.5972252e+08 2.5974132e+08      13563.8    432.28853   0.31135381         1880 
    1890    5259.4319 2.5972253e+08 2.5974132e+08    13534.112    433.68245   0.31238558         1890 
    1900    5286.5641 2.5972253e+08 2.5974132e+08    13504.485    435.15225   0.31341484         1900 
    1910     5313.642 2.5972253e+08 2.5974132e+08    13474.913    436.69669   0.31444177         1910 
    1920     5340.649 2.5972253e+08 2.5974132e+08     13445.39    438.30699   0.31546657         1920 
    1930    5367.5668 2.5972254e+08 2.5974132e+08    13415.912     439.9886   0.31648948         1930 
    1940    5394.4247 2.5972254e+08 2.5974132e+08    13386.471    441.73654   0.31751072         1940 
    1950    5421.2148 2.5972254e+08 2.5974132e+08    13357.063    443.55362   0.31853049         1950 
    1960    5447.9336 2.5972255e+08 2.5974132e+08    13327.683    445.42767   0.31954896         1960 
    1970    5474.5846 2.5972255e+08 2.5974132e+08    13298.327    447.35865   0.32056626         1970 
    1980    5501.1785 2.5972255e+08 2.5974132e+08    13268.996    449.34433   0.32158241         1980 
    1990    5527.6945 2.5972255e+08 2.5974132e+08    13239.713    451.36995   0.32259659         1990 
    2000    5554.1421 2.5972256e+08 2.5974132e+08    13210.487    452.82077   0.32360852         2000 
    2010     5580.822 2.5972256e+08 2.5974132e+08    13181.318    454.94101   0.32461817         2010 
    2020    5607.4201 2.5972256e+08 2.5974132e+08    13152.204    457.07861   0.32562564         2020 
    2030    5633.9404 2.5972256e+08 2.5974132e+08    13123.137    459.23025   0.32663117         2030 
    2040    5660.3866 2.5972257e+08 2.5974132e+08    13094.112    461.39504   0.32763502         2040 
    2050    5686.7504 2.5972257e+08 2.5974132e+08    13065.128    463.57483    0.3286372         2050 
    2060    5713.0232 2.5972257e+08 2.5974132e+08    13036.195    465.76853   0.32963742         2060 
    2070    5739.1943 2.5972257e+08 2.5974132e+08    13007.311    467.97776   0.33063578         2070 
    2080    5765.2858 2.5972258e+08 2.5974132e+08    12978.472    470.19531   0.33163243         2080 
    2090    5791.2992 2.5972258e+08 2.5974132e+08    12949.674    472.42138   0.33262757         2090 
    2100    5817.2233 2.5972258e+08 2.5974132e+08     12920.91     474.6594   0.33362138         2100 
    2110    5843.0729 2.5972259e+08 2.5974132e+08    12892.178    476.91248   0.33461405         2110 
    2120    5868.8694 2.5972259e+08 2.5974132e+08    12863.474    479.18007   0.33560572         2120 
    2130    5894.6205 2.5972259e+08 2.5974132e+08    12834.796    481.45962   0.33659642         2130 
    2140    5920.3011 2.5972259e+08 2.5974132e+08    12806.168    483.74823   0.33758543         2140 
    2150    5945.9112 2.597226e+08 2.5974132e+08    12777.594    486.05035    0.3385726         2150 
    2160    5971.4622 2.597226e+08 2.5974132e+08    12749.069    488.36922   0.33955809         2160 
    2170    5996.9418 2.597226e+08 2.5974132e+08     12720.59    490.70366   0.34054204         2170 
    2180    6022.3529 2.5972261e+08 2.5974132e+08    12692.153    493.05021    0.3415246         2180 
    2190    6047.7163 2.5972261e+08 2.5974132e+08    12663.754    495.40368   0.34250589         2190 
    2200    6073.0485 2.5972261e+08 2.5974132e+08    12635.391    497.76396   0.34348604         2200 
    2210    6098.3525 2.5972262e+08 2.5974132e+08     12607.06    500.12176   0.34446514         2210 
    2220     6123.612 2.5972262e+08 2.5974132e+08    12578.758    502.47743   0.34544327         2220 
    2230    6148.8261 2.5972262e+08 2.5974132e+08    12550.483    504.82211    0.3464205         2230 
    2240    6173.9904 2.5972262e+08 2.5974132e+08    12522.232    507.16052   0.34739689         2240 
    2250     6199.096 2.5972263e+08 2.5974132e+08    12494.003    509.49574    0.3483725         2250 
    2260    6224.1373 2.5972263e+08 2.5974132e+08    12465.792    511.82854   0.34934737         2260 
    2270    6249.1276 2.5972263e+08 2.5974132e+08    12437.599    514.15383   0.35032153         2270 
    2280    6274.0867 2.5972264e+08 2.5974132e+08    12409.422    516.46956   0.35129499         2280 
    2290    6298.9946 2.5972264e+08 2.5974132e+08    12381.259      518.782   0.35226777         2290 
    2300    6323.8424 2.5972264e+08 2.5974132e+08    12353.109    521.09199   0.35323985         2300 
    2310    6348.6225 2.5972265e+08 2.5974132e+08    12324.972    523.39065   0.35421124         2310 
    2320    6373.3449 2.5972265e+08 2.5974132e+08    12296.848    525.67913   0.35518191         2320 
    2330     6398.012 2.5972265e+08 2.5974132e+08    12268.735    527.96177   0.35615185         2330 
    2340    6422.6143 2.5972266e+08 2.5974132e+08    12240.634    530.23335   0.35712104         2340 
    2350    6447.1268 2.5972266e+08 2.5974132e+08    12212.546    532.49914   0.35808946         2350 
    2360    6471.5409 2.5972266e+08 2.5974132e+08    12184.469    534.76396    0.3590571         2360 
    2370    6495.8206 2.5972267e+08 2.5974132e+08    12156.406     537.0331   0.36002396         2370 
    2380     6519.952 2.5972267e+08 2.5974132e+08    12128.357     539.3014   0.36099004         2380 
    2390    6543.9257 2.5972268e+08 2.5974132e+08    12100.324    541.57296   0.36195531         2390 
    2400    6567.7424 2.5972268e+08 2.5974132e+08    12072.311    543.85451   0.36291977         2400 
    2410     6591.374 2.5972268e+08 2.5974132e+08     12044.32    546.15382   0.36388338         2410 
    2420    6614.7851 2.5972269e+08 2.5974132e+08    12016.356     548.4928   0.36484612         2420 
    2430    6637.9776 2.5972269e+08 2.5974132e+08    11988.421    550.88203   0.36580797         2430 
    2440    6660.9434 2.597227e+08 2.5974132e+08    11960.521    553.34251    0.3667689         2440 
    2450    6683.6196 2.597227e+08 2.5974132e+08    11932.659    555.90022    0.3677289         2450 
    2460     6705.814 2.5972271e+08 2.5974132e+08    11904.837    558.60954   0.36868795         2460 
    2470    6727.1965 2.5972272e+08 2.5974132e+08     11877.06    561.51614   0.36964605         2470 
    2480    6747.5169 2.5972272e+08 2.5974132e+08    11849.331    564.65036   0.37060317         2480 
    2490    6767.0862 2.5972273e+08 2.5974132e+08    11821.653    567.96877   0.37155932         2490 
    2500    6786.7241 2.5972274e+08 2.5974132e+08    11794.192    571.32571   0.37250888         2500 
    2510    6805.3662 2.5972275e+08 2.5974132e+08     11768.62    574.44874   0.37339403         2510 
    2520    6821.8506 2.5972275e+08 2.5974132e+08    11745.829    577.26183   0.37418367         2520 
    2530    6836.3058 2.5972276e+08 2.5974132e+08    11725.769    579.74841   0.37487922         2530 
    2540    6849.6157 2.5972276e+08 2.5974132e+08    11707.631    581.95506   0.37550853         2540 
    2550    6862.2786 2.5972277e+08 2.5974132e+08    11690.722    583.94742   0.37609555         2550 
    2560    6874.4243 2.5972277e+08 2.5974132e+08    11674.512    585.82684   0.37665862         2560 
    2570    6886.0885 2.5972278e+08 2.5974132e+08    11658.607     587.6873   0.37721138         2570 
    2580    6897.4007 2.5972278e+08 2.5974132e+08    11642.703    589.60455   0.37776435         2580 
    2590    6908.5324 2.5972279e+08 2.5974132e+08    11626.579      591.621   0.37832524         2590 
    2600    6919.6985 2.5972279e+08 2.5974132e+08    11610.183    593.73285   0.37889585         2600 
    2610    6930.6923 2.597228e+08 2.5974132e+08    11594.128    595.82934   0.37945489         2610 
    2620    6941.6408 2.597228e+08 2.5974132e+08    11578.442    597.87328   0.38000129         2620 
    2630    6952.5161 2.5972281e+08 2.5974132e+08    11563.037    599.87992   0.38053819         2630 
    2640    6963.1927 2.5972281e+08 2.5974132e+08    11547.819    601.87639   0.38106883         2640 
    2650    6973.6079 2.5972281e+08 2.5974132e+08     11532.69      603.884   0.38159664         2650 
    2660    6983.8165 2.5972282e+08 2.5974132e+08     11517.56     605.9221   0.38212474         2660 
    2670    6993.9729 2.5972282e+08 2.5974132e+08    11502.337    607.98664   0.38265635         2670 
    2680    7004.2462 2.5972283e+08 2.5974132e+08    11486.903    610.08866   0.38319565         2680 
    2690    7014.8344 2.5972283e+08 2.5974132e+08    11471.066    612.24092   0.38374929         2690 
    2700    7025.8723 2.5972284e+08 2.5974132e+08     11454.61    614.47535   0.38432491         2700 
    2710    7037.3035 2.5972285e+08 2.5974132e+08    11437.516    616.81977   0.38492325         2710 
    2720    7048.5017 2.5972285e+08 2.5974132e+08    11420.623    619.15883   0.38551489         2720 
    2730    7059.4858 2.5972286e+08 2.5974132e+08    11403.918    621.48662   0.38610035         2730 
    2740    7070.3755 2.5972286e+08 2.5974132e+08     11387.29     623.8167   0.38668349         2740 
    2750    7081.2986 2.5972287e+08 2.5974132e+08    11370.669    626.15605   0.38726681         2750 
    2760    7092.3029 2.5972287e+08 2.5974132e+08        11354     628.5283   0.38785218         2760 
    2770    7103.3725 2.5972288e+08 2.5974132e+08     11337.24     630.9443   0.38844119         2770 
    2780    7114.4924 2.5972289e+08 2.5974132e+08    11320.357    633.39597   0.38903494         2780 
    2790    7125.7314 2.5972289e+08 2.5974132e+08    11303.342    635.87279   0.38963378         2790 
    2800    7137.1592 2.597229e+08 2.5974132e+08    11286.211     638.3423   0.39023717         2800 
    2810    7148.7713 2.597229e+08 2.5974132e+08     11269.01    640.79246   0.39084351         2810 
    2820    7160.3988 2.5972291e+08 2.5974132e+08    11251.803    643.20888   0.39145053         2820 
    2830    7171.9051 2.5972291e+08 2.5974132e+08    11234.661    645.58098   0.39205573         2830 
    2840    7183.2048 2.5972292e+08 2.5974132e+08     11217.64    647.91293   0.39265718         2840 
    2850    7194.2677 2.5972293e+08 2.5974132e+08     11200.81    650.20791   0.39325238         2850 
    2860       7205.2 2.5972293e+08 2.5974132e+08    11184.115    652.47663    0.3938433         2860 
    2870    7216.0651 2.5972294e+08 2.5974132e+08    11167.519     654.7203   0.39443127         2870 
    2880    7226.8929 2.5972294e+08 2.5974132e+08     11151.04    656.93297   0.39501565         2880 
    2890    7237.7172 2.5972295e+08 2.5974132e+08    11134.655    659.12547   0.39559722         2890 
    2900    7248.5507 2.5972295e+08 2.5974132e+08    11118.339     661.2999   0.39617692         2900 
    2910    7259.3894 2.5972296e+08 2.5974132e+08    11102.056    663.46396   0.39675604         2910 
    2920    7270.2099 2.5972296e+08 2.5974132e+08    11085.762    665.62974   0.39733614         2920 
    2930    7281.0238 2.5972297e+08 2.5974132e+08    11069.415    667.80976   0.39791878         2930 
    2940    7291.8408 2.5972298e+08 2.5974132e+08    11052.971    670.01145   0.39850556         2940 
    2950     7302.701 2.5972298e+08 2.5974132e+08    11036.391    672.23484   0.39909789         2950 
    2960    7313.7082 2.5972299e+08 2.5974132e+08    11019.641     674.4676   0.39969705         2960 
    2970    7324.7207 2.5972299e+08 2.5974132e+08    11002.973    676.67276   0.40029409         2970 
    2980    7335.5655  2.59723e+08 2.5974132e+08    10986.638    678.80076   0.40087999         2980 
    2990    7346.2245  2.59723e+08 2.5974132e+08    10970.552     680.8712   0.40145777         2990 
    3000    7356.4031 2.5972301e+08 2.5974132e+08    10954.636    694.22463   0.40203023         3000 
    3010    7361.2859 2.5972302e+08 2.5974132e+08    10938.776    694.89289    0.4026017         3010 
    3020     7366.824 2.5972303e+08 2.5974132e+08    10922.863    696.06637   0.40317628         3020 
    3030    7372.7732 2.5972304e+08 2.5974132e+08    10906.802    697.51469   0.40375742         3030 
    3040    7379.0583 2.5972305e+08 2.5974132e+08    10890.482    699.14661   0.40434922         3040 
    3050    7385.6297 2.5972306e+08 2.5974132e+08    10873.797    700.91715   0.40495561         3050 
    3060    7392.4982 2.5972307e+08 2.5974132e+08    10856.671       702.79   0.40557945         3060 
    3070    7399.5368 2.5972308e+08 2.5974132e+08    10839.338    704.72399   0.40621234         3070 
    3080    7406.6099 2.5972309e+08 2.5974132e+08    10822.029    706.69959    0.4068459         3080 
    3090    7413.8056 2.597231e+08 2.5974132e+08    10804.687    708.66462   0.40748221         3090 
    3100    7421.0788 2.5972311e+08 2.5974132e+08    10787.265    710.63911   0.40812306         3100 
    3110    7428.4115 2.5972312e+08 2.5974132e+08    10769.731    712.60307    0.4087697         3110 
    3120     7435.811 2.5972313e+08 2.5974132e+08    10752.116    714.55121   0.40942104         3120 
    3130    7443.1743 2.5972314e+08 2.5974132e+08    10734.548    716.48999   0.41007236         3130 
    3140    7450.5238 2.5972315e+08 2.5974132e+08    10717.059    718.40392   0.41072259         3140 
    3150    7457.8622 2.5972316e+08 2.5974132e+08    10699.655    720.28978   0.41137143         3150 
    3160    7465.1855 2.5972317e+08 2.5974132e+08    10682.329    722.16246    0.4120192         3160 
    3170    7472.5145 2.5972318e+08 2.5974132e+08     10665.06    724.00765   0.41266672         3170 
    3180    7479.8726 2.5972319e+08 2.5974132e+08    10647.817    725.82995   0.41331517         3180 
    3190    7487.2556 2.597232e+08 2.5974132e+08    10630.562    727.64769   0.41396599         3190 
    3200    7494.6423 2.5972321e+08 2.5974132e+08    10613.255    729.47214   0.41462075         3200 
    3210    7502.0647 2.5972322e+08 2.5974132e+08    10595.858    731.29625   0.41528094         3210 
    3220     7509.542 2.5972323e+08 2.5974132e+08    10578.347    733.12481   0.41594762         3220 
    3230    7517.0044 2.5972324e+08 2.5974132e+08    10560.845    734.96839   0.41661612         3230 
    3240    7524.4295 2.5972325e+08 2.5974132e+08    10543.408    736.79208   0.41728434         3240 
    3250    7531.8247 2.5972326e+08 2.5974132e+08    10526.023    738.61202   0.41795279         3250 
    3260    7539.2062 2.5972327e+08 2.5974132e+08    10508.686    740.41371   0.41862169         3260 
    3270    7546.5892 2.5972328e+08 2.5974132e+08    10491.399    742.20067   0.41929094         3270 
    3280    7553.9628 2.5972329e+08 2.5974132e+08    10474.168    743.95579   0.41996035         3280 
    3290    7561.2911 2.597233e+08 2.5974132e+08    10456.999    745.69143   0.42062973         3290 
    3300    7568.5946 2.5972331e+08 2.5974132e+08    10439.896     747.3977   0.42129893         3300 
    3310    7575.9084 2.5972332e+08 2.5974132e+08    10422.857    749.06905   0.42196804         3310 
    3320    7583.1968 2.5972333e+08 2.5974132e+08    10405.878    750.72604   0.42263725         3320 
    3330     7590.448 2.5972334e+08 2.5974132e+08    10388.956    752.35646   0.42330667         3330 
    3340     7597.654 2.5972335e+08 2.5974132e+08    10372.093    753.97272    0.4239763         3340 
    3350     7604.849 2.5972336e+08 2.5974132e+08    10355.286    755.56089   0.42464623         3350 
    3360    7612.0433 2.5972337e+08 2.5974132e+08    10338.527    757.13788   0.42531684         3360 
    3370    7619.2183 2.5972338e+08 2.5974132e+08      10321.8    758.70583   0.42598879         3370 
    3380     7626.403 2.5972339e+08 2.5974132e+08    10305.085    760.25918   0.42666297         3380 
    3390     7633.604 2.597234e+08 2.5974132e+08    10288.355    761.80327   0.42734045         3390 
    3400    7640.8194 2.5972341e+08 2.5974132e+08    10271.585    763.34215   0.42802234         3400 
    3410    7648.0823 2.5972342e+08 2.5974132e+08     10254.75    764.86129   0.42870981         3410 
    3420     7655.335 2.5972343e+08 2.5974132e+08    10237.918    766.36601   0.42940012         3420 
    3430    7662.5261 2.5972344e+08 2.5974132e+08    10221.147    767.86152   0.43009088         3430 
    3440     7669.714 2.5972345e+08 2.5974132e+08     10204.44    769.32092    0.4307821         3440 
    3450    7676.8991 2.5972346e+08 2.5974132e+08    10187.795    770.76877   0.43147382         3450 
    3460    7684.0449 2.5972347e+08 2.5974132e+08    10171.212    772.18903   0.43216607         3460 
    3470    7691.1403 2.5972347e+08 2.5974132e+08    10154.692     773.5964   0.43285889         3470 
    3480    7698.1762 2.5972348e+08 2.5974132e+08    10138.233    774.98582   0.43355234         3480 
    3490    7705.1533 2.5972349e+08 2.5974132e+08    10121.836    776.36076   0.43424645         3490 
    3500    7712.0737 2.597235e+08 2.5974132e+08      10105.5    777.72194   0.43494129         3500 
    3510    7718.8914 2.5972351e+08 2.5974132e+08    10089.225    779.07398    0.4356369         3510 
    3520    7725.6292 2.5972352e+08 2.5974132e+08     10073.01    780.41585   0.43633332         3520 
    3530    7732.3246 2.5972353e+08 2.5974132e+08    10056.856    781.73939   0.43703058         3530 
    3540    7738.9426 2.5972354e+08 2.5974132e+08    10040.763    783.05538    0.4377287         3540 
    3550    7745.5006 2.5972355e+08 2.5974132e+08    10024.731    784.36248   0.43842766         3550 
    3560    7752.0228 2.5972356e+08 2.5974132e+08    10008.764    785.66195   0.43912743         3560 
    3570    7758.4993 2.5972357e+08 2.5974132e+08    9992.8632    786.95185   0.43982792         3570 
    3580    7764.9374 2.5972358e+08 2.5974132e+08    9977.0356    788.22257   0.44052884         3580 
    3590    7771.3596 2.5972359e+08 2.5974132e+08    9961.2786     789.4811   0.44123037         3590 
    3600    7777.7356 2.597236e+08 2.5974132e+08    9945.5873     790.7285   0.44193273         3600 
    3610    7784.0465 2.5972361e+08 2.5974132e+08    9929.9667    791.96173   0.44263574         3610 
    3620     7790.334 2.5972362e+08 2.5974132e+08     9914.419    793.16168   0.44333934         3620 
    3630    7796.5737 2.5972363e+08 2.5974132e+08    9898.9449    794.34088   0.44404352         3630 
    3640    7802.7435 2.5972363e+08 2.5974132e+08     9883.545    795.49891   0.44474828         3640 
    3650    7808.8779 2.5972364e+08 2.5974132e+08      9868.22    796.62834    0.4454536         3650 
    3660    7815.0074 2.5972365e+08 2.5974132e+08    9852.9705      797.725   0.44615949         3660 
    3670    7821.1103 2.5972366e+08 2.5974132e+08    9837.7969    798.79655   0.44686595         3670 
    3680    7827.1833 2.5972367e+08 2.5974132e+08    9822.6997    799.83838   0.44757296         3680 
    3690    7833.2483 2.5972368e+08 2.5974132e+08    9807.6795    800.85724   0.44828053         3690 
    3700    7839.3011 2.5972369e+08 2.5974132e+08    9792.7367    801.84668   0.44898866         3700 
    3710    7845.3176 2.597237e+08 2.5974132e+08    9777.8717    802.82562   0.44969735         3710 
    3720    7851.2998 2.5972371e+08 2.5974132e+08    9763.0851    803.77816   0.45040659         3720 
    3730    7857.2254 2.5972372e+08 2.5974132e+08    9748.3772    804.71244   0.45111638         3730 
    3740    7863.0832 2.5972372e+08 2.5974132e+08    9733.7484    805.64329   0.45182673         3740 
    3750    7868.9268 2.5972373e+08 2.5974132e+08    9719.1991    806.52694   0.45253763         3750 
    3760    7874.7511 2.5972374e+08 2.5974132e+08    9704.7298    807.38902   0.45324909         3760 
    3770    7880.5347 2.5972375e+08 2.5974132e+08    9690.3408    808.23318   0.45396109         3770 
    3780    7886.3093 2.5972376e+08 2.5974132e+08    9676.0328    809.03317   0.45467365         3780 
    3790    7892.0498 2.5972377e+08 2.5974132e+08     9661.806       809.81   0.45538676         3790 
    3800    7897.7113 2.5972378e+08 2.5974132e+08    9647.6607    810.57173   0.45610043         3800 
    3810    7903.3272 2.5972378e+08 2.5974132e+08    9633.5974    811.30731   0.45681464         3810 
    3820    7908.9174 2.5972379e+08 2.5974132e+08    9619.6168    812.02988   0.45752941         3820 
    3830    7914.4764 2.597238e+08 2.5974132e+08    9605.7194    812.72982   0.45824473         3830 
    3840    7920.0097 2.5972381e+08 2.5974132e+08    9591.9057    813.41634   0.45896061         3840 
    3850    7925.5065 2.5972382e+08 2.5974132e+08    9578.1762    814.09239   0.45967704         3850 
    3860    7930.9712 2.5972383e+08 2.5974132e+08    9564.5318    814.75413   0.46039403         3860 
    3870    7936.4324 2.5972383e+08 2.5974132e+08    9550.9731    815.41047   0.46111157         3870 
    3880    7941.9047 2.5972384e+08 2.5974132e+08    9537.5007    816.05398   0.46182967         3880 
    3890    7947.3632 2.5972385e+08 2.5974132e+08    9524.1154    816.69464   0.46254833         3890 
    3900    7952.8036 2.5972386e+08 2.5974132e+08    9510.8178    817.33174   0.46326754         3900 
    3910      7958.25 2.5972386e+08 2.5974132e+08    9497.6087    817.95568   0.46398731         3910 
    3920    7963.7162 2.5972387e+08 2.5974132e+08    9484.4888    818.56577   0.46470764         3920 
    3930    7969.1655 2.5972388e+08 2.5974132e+08     9471.459    819.16517   0.46542853         3930 
    3940    7974.5976 2.5972389e+08 2.5974132e+08    9458.5201    819.75263   0.46614998         3940 
    3950     7980.053 2.5972389e+08 2.5974132e+08    9445.6728     820.3214   0.46687199         3950 
    3960     7985.538 2.597239e+08 2.5974132e+08    9432.9182    820.88598   0.46759456         3960 
    3970     7991.033 2.5972391e+08 2.5974132e+08     9420.257    821.44419   0.46831769         3970 
    3980    7996.5161 2.5972392e+08 2.5974132e+08    9407.6899    821.98652   0.46904139         3980 
    3990    8001.9766 2.5972392e+08 2.5974132e+08    9395.2178    822.52927   0.46976565         3990 
    4000    8007.4911 2.5972393e+08 2.5974132e+08    9382.8414    823.05667   0.47049047         4000 
    4010    8013.0959 2.5972394e+08 2.5974132e+08    9370.5616     823.5649   0.47121587         4010 
    4020    8018.7272 2.5972394e+08 2.5974132e+08     9358.379    824.07606   0.47194183         4020 
    4030    8024.3796 2.5972395e+08 2.5974132e+08    9346.2941    824.57696   0.47266837         4030 
    4040    8030.0812 2.5972396e+08 2.5974132e+08    9334.3076    825.05577   0.47339547         4040 
    4050    8035.8272 2.5972396e+08 2.5974132e+08    9322.4201    825.51818   0.47412315         4050 
    4060    8041.5925 2.5972397e+08 2.5974132e+08    9310.6322     825.9647    0.4748514         4060 
    4070    8047.3796 2.5972397e+08 2.5974132e+08    9298.9445    826.38638   0.47558023         4070 
    4080    8053.1965 2.5972398e+08 2.5974132e+08    9287.3574    826.77875   0.47630964         4080 
    4090    8059.0233 2.5972399e+08 2.5974132e+08    9275.8714    827.14529   0.47703962         4090 
    4100    8064.8541 2.5972399e+08 2.5974132e+08    9264.4868    827.49618   0.47777018         4100 
    4110    8070.7159  2.59724e+08 2.5974132e+08    9253.2042    827.81663   0.47850132         4110 
    4120    8076.6099  2.59724e+08 2.5974132e+08    9242.0239    828.11029   0.47923305         4120 
    4130    8082.5191 2.5972401e+08 2.5974132e+08     9230.946    828.40291   0.47996535         4130 
    4140    8088.4757 2.5972401e+08 2.5974132e+08     9219.971    828.67793   0.48069824         4140 
    4150    8094.4778 2.5972402e+08 2.5974132e+08    9209.0991    828.94006   0.48143171         4150 
    4160    8100.4731 2.5972402e+08 2.5974132e+08    9198.3305    829.19721   0.48216577         4160 
    4170     8106.478 2.5972403e+08 2.5974132e+08    9187.6652    829.44035   0.48290041         4170 
    4180     8112.564 2.5972403e+08 2.5974132e+08    9177.1037    829.64417   0.48363564         4180 
    4190     8118.696 2.5972404e+08 2.5974132e+08    9166.6488    829.81678   0.48437126         4190 
    4200    8124.7983 2.5972404e+08 2.5974132e+08    9156.3111    829.97087   0.48510649         4200 
    4210     8130.904 2.5972404e+08 2.5974132e+08    9146.0898    830.08394   0.48584138         4210 
    4220     8137.034 2.5972405e+08 2.5974132e+08    9135.9827    830.15801   0.48657605         4220 
    4230    8143.1724 2.5972405e+08 2.5974132e+08    9125.9968    830.21204   0.48730995         4230 
    4240    8149.3157 2.5972406e+08 2.5974132e+08    9116.1307    830.21982   0.48804316         4240 
    4250    8155.4466 2.5972406e+08 2.5974132e+08    9106.3787    830.19451   0.48877605         4250 
    4260     8161.572 2.5972406e+08 2.5974132e+08    9096.7367    830.12756   0.48950891         4260 
    4270    8167.6991 2.5972407e+08 2.5974132e+08    9087.2021    829.99998   0.49024193         4270 
    4280    8173.8017 2.5972407e+08 2.5974132e+08    9077.7731     829.8338   0.49097522         4280 
    4290    8179.9047 2.5972407e+08 2.5974132e+08     9068.449    829.61909   0.49170884         4290 
    4300    8186.0255 2.5972408e+08 2.5974132e+08    9059.2296    829.33689    0.4924428         4300 
    4310    8192.1093 2.5972408e+08 2.5974132e+08    9050.1145    829.00981   0.49317712         4310 
    4320    8198.1436 2.5972408e+08 2.5974132e+08    9041.1036    828.63227   0.49391179         4320 
    4330    8204.1831 2.5972408e+08 2.5974132e+08    9032.1961    828.18849   0.49464686         4330 
    4340    8210.2335 2.5972409e+08 2.5974132e+08    9023.3912    827.70604    0.4953824         4340 
    4350    8216.2578 2.5972409e+08 2.5974132e+08    9014.6915    827.16926   0.49611817         4350 
    4360    8222.2427 2.5972409e+08 2.5974132e+08    9006.0969    826.58031   0.49685415         4360 
    4370    8228.1667 2.5972409e+08 2.5974132e+08    8997.6045    825.95317   0.49759056         4370 
    4380    8234.0601 2.597241e+08 2.5974132e+08    8989.2129    825.28129   0.49832752         4380 
    4390    8239.9611 2.597241e+08 2.5974132e+08    8980.9267    824.55518   0.49906463         4390 
    4400    8245.8164 2.597241e+08 2.5974132e+08    8972.7484    823.78798   0.49980163         4400 
    4410    8251.5937 2.597241e+08 2.5974132e+08    8964.6758      822.985    0.5005387         4410 
    4420    8257.3614 2.5972411e+08 2.5974132e+08    8956.7068    822.12572   0.50127601         4420 
    4430    8263.1647 2.5972411e+08 2.5974132e+08    8948.8394    821.21203   0.50201374         4430 
    4440    8268.9619 2.5972411e+08 2.5974132e+08    8941.0718    820.26535   0.50275202         4440 
    4450    8274.7535 2.5972411e+08 2.5974132e+08    8933.4024    819.26679     0.503491         4450 
    4460    8280.5574 2.5972411e+08 2.5974132e+08    8925.8301    818.21709   0.50423076         4460 
    4470    8286.3493 2.5972412e+08 2.5974132e+08    8918.3551    817.12403   0.50497126         4470 
    4480    8292.1256 2.5972412e+08 2.5974132e+08    8910.9796    815.98673   0.50571225         4480 
    4490    8297.9029 2.5972412e+08 2.5974132e+08    8903.7021    814.80572   0.50645385         4490 
    4500    8303.6864 2.5972412e+08 2.5974132e+08    8896.5221    813.59116   0.50719608         4500 
    4510    8309.4624 2.5972412e+08 2.5974132e+08    8889.4428    812.33113   0.50793856         4510 
    4520    8315.2142 2.5972412e+08 2.5974132e+08     8882.463    811.03134   0.50868135         4520 
    4530    8320.9468 2.5972412e+08 2.5974132e+08    8875.5806    809.68952   0.50942461         4530 
    4540    8326.6766 2.5972413e+08 2.5974132e+08    8868.7941    808.29912   0.51016844         4540 
    4550    8332.3834 2.5972413e+08 2.5974132e+08    8862.1024    806.87479   0.51091292         4550 
    4560    8338.0446 2.5972413e+08 2.5974132e+08    8855.5052    805.41246   0.51165799         4560 
    4570    8343.6609 2.5972413e+08 2.5974132e+08    8849.0063    803.91097   0.51240316         4570 
    4580    8349.2177 2.5972413e+08 2.5974132e+08     8842.605    802.37788   0.51314841         4580 
    4590    8354.7269 2.5972413e+08 2.5974132e+08    8836.3003    800.81749   0.51389379         4590 
    4600    8360.2322 2.5972413e+08 2.5974132e+08    8830.0909    799.21134   0.51463935         4600 
    4610    8365.7269 2.5972413e+08 2.5974132e+08    8823.9757    797.56811   0.51538516         4610 
    4620    8371.1983 2.5972413e+08 2.5974132e+08    8817.9534    795.88607   0.51613128         4620 
    4630    8376.6577 2.5972413e+08 2.5974132e+08    8812.0226      794.154   0.51687777         4630 
    4640    8382.1035 2.5972413e+08 2.5974132e+08    8806.1822    792.38766    0.5176247         4640 
    4650    8387.5599 2.5972413e+08 2.5974132e+08    8800.4311     790.5772   0.51837212         4650 
    4660    8393.0338 2.5972413e+08 2.5974132e+08    8794.7683    788.72016   0.51912007         4660 
    4670    8398.4935 2.5972413e+08 2.5974132e+08    8789.1929    786.84289   0.51986862         4670 
    4680    8403.9457 2.5972413e+08 2.5974132e+08    8783.7038    784.93607   0.52061782         4680 
    4690    8409.4309 2.5972413e+08 2.5974132e+08     8778.302    782.98355   0.52136749         4690 
    4700    8414.9091 2.5972413e+08 2.5974132e+08    8772.9891    780.99157   0.52211731         4700 
    4710    8420.3143 2.5972413e+08 2.5974132e+08    8767.7645    778.97873   0.52286725         4710 
    4720    8425.6799 2.5972413e+08 2.5974132e+08    8762.6276     776.9211   0.52361729         4720 
    4730    8431.0479 2.5972413e+08 2.5974132e+08    8757.5779    774.81182   0.52436743         4730 
    4740    8436.4054 2.5972413e+08 2.5974132e+08    8752.6154    772.67112   0.52511756         4740 
    4750    8441.7316 2.5972413e+08 2.5974132e+08    8747.7408    770.48384    0.5258674         4750 
    4760    8447.0007 2.5972413e+08 2.5974132e+08    8742.9528    768.25448   0.52661705         4760 
    4770    8452.2068 2.5972413e+08 2.5974132e+08    8738.2495    765.98905    0.5273666         4770 
    4780    8457.3931 2.5972413e+08 2.5974132e+08    8733.6298    763.66718   0.52811614         4780 
    4790    8462.5693 2.5972413e+08 2.5974132e+08    8729.0923    761.28883   0.52886574         4790 
    4800    8467.6828 2.5972413e+08 2.5974132e+08    8724.6357    758.87255   0.52961547         4800 
    4810    8472.7138 2.5972413e+08 2.5974132e+08    8720.2586    756.41734    0.5303654         4810 
    4820    8477.6876 2.5972413e+08 2.5974132e+08    8715.9601    753.91539   0.53111556         4820 
    4830    8482.6243 2.5972413e+08 2.5974132e+08    8711.7392    751.37478   0.53186599         4830 
    4840    8487.5316 2.5972413e+08 2.5974132e+08    8707.5949    748.78868   0.53261672         4840 
    4850    8492.4045 2.5972412e+08 2.5974132e+08    8703.5263    746.16518   0.53336777         4850 
    4860    8497.2346 2.5972412e+08 2.5974132e+08    8699.5326    743.50757   0.53411914         4860 
    4870    8502.0485 2.5972412e+08 2.5974132e+08     8695.613    740.80368   0.53487087         4870 
    4880    8506.8442 2.5972412e+08 2.5974132e+08    8691.7666    738.05291   0.53562296         4880 
    4890    8511.5795 2.5972412e+08 2.5974132e+08    8687.9925     735.2663   0.53637545         4890 
    4900    8516.2683 2.5972412e+08 2.5974132e+08      8684.29    732.44366   0.53712834         4900 
    4910    8520.9587 2.5972412e+08 2.5974132e+08    8680.6586    729.56603   0.53788166         4910 
    4920    8525.6308 2.5972412e+08 2.5974132e+08    8677.0976     726.6449   0.53863544         4920 
    4930    8530.2314 2.5972412e+08 2.5974132e+08    8673.6061    723.69813   0.53938973         4930 
    4940    8534.7616 2.5972412e+08 2.5974132e+08    8670.1834    720.72194    0.5401446         4940 
    4950     8539.242 2.5972411e+08 2.5974132e+08    8666.8286    717.70203   0.54090011         4950 
    4960    8543.6808 2.5972411e+08 2.5974132e+08    8663.5411     714.6575   0.54165631         4960 
    4970    8548.0677 2.5972411e+08 2.5974132e+08    8660.3213    711.58585   0.54241299         4970 
    4980    8552.3892 2.5972411e+08 2.5974132e+08    8657.1694    708.49062      0.54317         4980 
    4990    8556.6472 2.5972411e+08 2.5974132e+08    8654.0848    705.37392   0.54392732         4990 
    5000    8561.0066 2.5972411e+08 2.5974132e+08    8651.0668    694.93034   0.54468497         5000 
    5010    8568.2578 2.597241e+08 2.5974132e+08    8648.1119    692.12739   0.54544276         5010 
    5020    8575.4655 2.597241e+08 2.5974132e+08    8645.2173    689.29737   0.54620052         5020 
    5030    8582.5628 2.597241e+08 2.5974132e+08    8642.3837    686.42531   0.54695798         5030 
    5040    8589.5285 2.5972409e+08 2.5974132e+08    8639.6113    683.49815   0.54771513         5040 
    5050    8596.3643 2.5972409e+08 2.5974132e+08    8636.8998    680.51847   0.54847208         5050 
    5060    8603.0795 2.5972408e+08 2.5974132e+08     8634.249    677.48793   0.54922891         5060 
    5070    8609.6725 2.5972408e+08 2.5974132e+08    8631.6589    674.41734   0.54998567         5070 
    5080    8616.1333 2.5972408e+08 2.5974132e+08    8629.1294    671.32428   0.55074239         5080 
    5090    8622.4522 2.5972407e+08 2.5974132e+08    8626.6604    668.22321    0.5514991         5090 
    5100     8628.625 2.5972407e+08 2.5974132e+08    8624.2516    665.12603    0.5522558         5100 
    5110    8634.6609 2.5972406e+08 2.5974132e+08    8621.9026    662.04404   0.55301252         5110 
    5120    8640.5675 2.5972406e+08 2.5974132e+08    8619.6129    658.97628   0.55376931         5120 
    5130     8646.356 2.5972406e+08 2.5974132e+08    8617.3818     655.9303   0.55452622         5130 
    5140    8652.0429 2.5972405e+08 2.5974132e+08    8615.2086    652.90072   0.55528334         5140 
    5150    8657.6287 2.5972405e+08 2.5974132e+08    8613.0925    649.88509   0.55604077         5150 
    5160    8663.0977 2.5972405e+08 2.5974132e+08    8611.0326    646.88742   0.55679861         5160 
    5170    8668.4563 2.5972404e+08 2.5974132e+08     8609.028    643.90856   0.55755696         5170 
    5180    8673.7075 2.5972404e+08 2.5974132e+08    8607.0781    640.95131   0.55831586         5180 
    5190    8678.8388 2.5972404e+08 2.5974132e+08    8605.1827    638.03083    0.5590751         5190 
    5200     8683.859 2.5972403e+08 2.5974132e+08    8603.3413    635.14351   0.55983465         5200 
    5210    8688.7786 2.5972403e+08 2.5974132e+08    8601.5531    632.28717   0.56059455         5210 
    5220    8693.5846 2.5972403e+08 2.5974132e+08    8599.8177    629.46379   0.56135482         5220 
    5230    8698.2715 2.5972402e+08 2.5974132e+08    8598.1342    626.67402   0.56211549         5230 
    5240     8702.853 2.5972402e+08 2.5974132e+08    8596.5021    623.90823   0.56287662         5240 
    5250    8707.3349 2.5972402e+08 2.5974132e+08    8594.9207    621.16189   0.56363824         5250 
    5260    8711.7067 2.5972402e+08 2.5974132e+08    8593.3893    618.43568   0.56440044         5260 
    5270    8715.9772 2.5972401e+08 2.5974132e+08     8591.907    615.72793   0.56516327         5270 
    5280    8720.1563 2.5972401e+08 2.5974132e+08    8590.4732    613.03389   0.56592679         5280 
    5290    8724.2187 2.5972401e+08 2.5974132e+08     8589.087    610.35823   0.56669101         5290 
    5300    8728.1637  2.59724e+08 2.5974132e+08    8587.7479    607.70185   0.56745583         5300 
    5310    8732.0192  2.59724e+08 2.5974132e+08    8586.4568      605.061   0.56822029         5310 
    5320    8735.7824  2.59724e+08 2.5974132e+08    8585.2129     602.4456   0.56898423         5320 
    5330    8739.4411  2.59724e+08 2.5974132e+08    8584.0149    599.85911   0.56974792         5330 
    5340    8742.9987 2.5972399e+08 2.5974132e+08    8582.8618    597.29494   0.57051152         5340 
    5350    8746.4397 2.5972399e+08 2.5974132e+08    8581.7526    594.75655   0.57127509         5350 
    5360    8749.7512 2.5972399e+08 2.5974132e+08    8580.6866    592.25341   0.57203861         5360 
    5370    8752.9546 2.5972399e+08 2.5974132e+08     8579.663    589.78199   0.57280206         5370 
    5380    8756.0629 2.5972399e+08 2.5974132e+08    8578.6813    587.34139    0.5735654         5380 
    5390    8759.0577 2.5972398e+08 2.5974132e+08    8577.7407     584.9389   0.57432864         5390 
    5400      8761.95 2.5972398e+08 2.5974132e+08    8576.8406    582.57122    0.5750918         5400 
    5410    8764.7884 2.5972398e+08 2.5974132e+08    8575.9802    580.22281   0.57585496         5410 
    5420    8767.5644 2.5972398e+08 2.5974132e+08     8575.159    577.89124   0.57661825         5420 
    5430    8770.2349 2.5972398e+08 2.5974132e+08    8574.3762    575.58105    0.5773818         5430 
    5440    8772.8015 2.5972397e+08 2.5974132e+08    8573.6313    573.28546   0.57814577         5440 
    5450    8775.2925 2.5972397e+08 2.5974132e+08    8572.9238    570.99888   0.57891023         5450 
    5460    8777.7046 2.5972397e+08 2.5974132e+08    8572.2533    568.72645   0.57967524         5460 
    5470    8780.0212 2.5972397e+08 2.5974132e+08    8571.6195    566.47048   0.58044083         5470 
    5480    8782.2551 2.5972397e+08 2.5974132e+08     8571.022     564.2302   0.58120701         5480 
    5490    8784.4445 2.5972397e+08 2.5974132e+08    8570.4605    562.00988   0.58197379         5490 
    5500    8786.5846 2.5972396e+08 2.5974132e+08    8569.9348    559.81269   0.58274113         5500 
    5510    8788.6284 2.5972396e+08 2.5974132e+08    8569.4445    557.64293   0.58350896         5510 
    5520     8790.573 2.5972396e+08 2.5974132e+08    8568.9891    555.49934   0.58427722         5520 
    5530    8792.4419 2.5972396e+08 2.5974132e+08    8568.5683    553.37864   0.58504581         5530 
    5540    8794.2339 2.5972396e+08 2.5974132e+08    8568.1816    551.28836   0.58581463         5540 
    5550    8795.9349 2.5972396e+08 2.5974132e+08    8567.8285    549.23244   0.58658358         5550 
    5560    8797.5532 2.5972396e+08 2.5974132e+08    8567.5084    547.20793   0.58735255         5560 
    5570    8799.1001 2.5972395e+08 2.5974132e+08    8567.2206    545.21684   0.58812151         5570 
    5580    8800.6008 2.5972395e+08 2.5974132e+08    8566.9643    543.25593   0.58889047         5580 
    5590    8802.0654 2.5972395e+08 2.5974132e+08    8566.7387    541.32165    0.5896595         5590 
    5600    8803.4726 2.5972395e+08 2.5974132e+08    8566.5431    539.42002   0.59042867         5600 
    5610    8804.8225 2.5972395e+08 2.5974132e+08    8566.3766    537.54954   0.59119808         5610 
    5620    8806.1273 2.5972395e+08 2.5974132e+08    8566.2384    535.70696   0.59196783         5620 
    5630    8807.3761 2.5972395e+08 2.5974132e+08    8566.1276     533.8929   0.59273802         5630 
    5640    8808.5574 2.5972395e+08 2.5974132e+08    8566.0436    532.10714   0.59350875         5640 
    5650    8809.6729 2.5972395e+08 2.5974132e+08    8565.9853    530.34577   0.59428013         5650 
    5660    8810.7338 2.5972394e+08 2.5974132e+08     8565.952    528.61051   0.59505218         5660 
    5670    8811.7544 2.5972394e+08 2.5974132e+08     8565.943    526.89809   0.59582493         5670 
    5680    8812.7303 2.5972394e+08 2.5974132e+08    8565.9573    525.20642   0.59659842         5680 
    5690    8813.6552 2.5972394e+08 2.5974132e+08    8565.9942    523.53773   0.59737269         5690 
    5700    8814.5365 2.5972394e+08 2.5974132e+08    8566.0528    521.88883   0.59814781         5700 
    5710    8815.3828 2.5972394e+08 2.5974132e+08    8566.1324    520.26047   0.59892383         5710 
    5720    8816.1829 2.5972394e+08 2.5974132e+08    8566.2321    518.65432    0.5997008         5720 
    5730     8816.906 2.5972394e+08 2.5974132e+08    8566.3511    517.07477   0.60047872         5730 
    5740    8817.5328 2.5972394e+08 2.5974132e+08    8566.4884    515.52469   0.60125736         5740 
    5750    8818.0767 2.5972394e+08 2.5974132e+08    8566.6432    514.00732   0.60203637         5750 
    5760    8818.5648 2.5972394e+08 2.5974132e+08    8566.8144    512.52148   0.60281584         5760 
    5770    8819.0042 2.5972393e+08 2.5974132e+08    8567.0015    511.06894   0.60359554         5770 
    5780    8819.3965 2.5972393e+08 2.5974132e+08    8567.2034    509.65737   0.60437542         5780 
    5790    8819.7347 2.5972393e+08 2.5974132e+08    8567.4196    508.28424   0.60515547         5790 
    5800    8820.0159 2.5972393e+08 2.5974132e+08    8567.6492    506.95222   0.60593574         5800 
    5810     8820.247 2.5972393e+08 2.5974132e+08    8567.8915    505.66004   0.60671614         5810 
    5820    8820.4167 2.5972393e+08 2.5974132e+08    8568.1459    504.40413   0.60749655         5820 
    5830     8820.515 2.5972393e+08 2.5974132e+08    8568.4118    503.18789    0.6082771         5830 
    5840    8820.5588 2.5972393e+08 2.5974132e+08    8568.6885    502.01365   0.60905793         5840 
    5850    8820.5605 2.5972393e+08 2.5974132e+08    8568.9756    500.87238   0.60983925         5850 
    5860    8820.5018 2.5972393e+08 2.5974132e+08    8569.2726    499.76621   0.61062125         5860 
    5870    8820.3613 2.5972393e+08 2.5974132e+08    8569.5787    498.70267   0.61140361         5870 
    5880    8820.1502 2.5972393e+08 2.5974132e+08    8569.8933    497.67512   0.61218624         5880 
    5890    8819.8878 2.5972393e+08 2.5974132e+08    8570.2159    496.68115   0.61296925         5890 
    5900      8819.58 2.5972393e+08 2.5974132e+08    8570.5458    495.72351   0.61375275         5900 
    5910    8819.2371 2.5972393e+08 2.5974132e+08    8570.8828    494.79882   0.61453681         5910 
    5920    8818.8715 2.5972393e+08 2.5974132e+08    8571.2263    493.90548   0.61532151         5920 
    5930     8818.474 2.5972393e+08 2.5974132e+08    8571.5759    493.04384    0.6161069         5930 
    5940    8818.0421 2.5972393e+08 2.5974132e+08    8571.9311    492.21491   0.61689301         5940 
    5950    8817.5901 2.5972393e+08 2.5974132e+08    8572.2915    491.41298   0.61767985         5950 
    5960    8817.1102 2.5972393e+08 2.5974132e+08    8572.6568    490.64231   0.61846744         5960 
    5970    8816.5887 2.5972393e+08 2.5974132e+08    8573.0264    489.91061   0.61925575         5970 
    5980    8816.0442 2.5972393e+08 2.5974132e+08    8573.3999     489.2093   0.62004477         5980 
    5990    8815.4765 2.5972393e+08 2.5974132e+08     8573.777    488.54257   0.62083447         5990 
    6000    8814.8663 2.5972393e+08 2.5974132e+08    8574.1571    487.91209   0.62162483         6000 
    6010    8814.2116 2.5972393e+08 2.5974132e+08      8574.54     487.3112    0.6224158         6010 
    6020    8813.5131 2.5972393e+08 2.5974132e+08     8574.925    486.73825   0.62320735         6020 
    6030     8812.768 2.5972393e+08 2.5974132e+08     8575.312    486.19137   0.62399947         6030 
    6040    8811.9899 2.5972393e+08 2.5974132e+08    8575.7007     485.6616   0.62479215         6040 
    6050    8811.1702 2.5972393e+08 2.5974132e+08    8576.0908    485.14736   0.62558538         6050 
    6060    8810.2934 2.5972393e+08 2.5974132e+08    8576.4819    484.65305    0.6263792         6060 
    6070    8809.3694 2.5972393e+08 2.5974132e+08    8576.8739    484.17774   0.62717361         6070 
    6080    8808.4129 2.5972394e+08 2.5974132e+08    8577.2666    483.71984   0.62796868         6080 
    6090    8807.4109 2.5972394e+08 2.5974132e+08    8577.6598    483.28864   0.62876444         6090 
    6100    8806.3589 2.5972394e+08 2.5974132e+08    8578.0531    482.89083   0.62956081         6100 
    6110    8805.2744 2.5972394e+08 2.5974132e+08    8578.4464    482.51838    0.6303577         6110 
    6120    8804.1647 2.5972394e+08 2.5974132e+08    8578.8395    482.17451   0.63115516         6120 
    6130    8803.0252 2.5972394e+08 2.5974132e+08    8579.2324    481.86028   0.63195327         6130 
    6140    8801.8599 2.5972394e+08 2.5974132e+08    8579.6249    481.57296   0.63275206         6140 
    6150    8800.6756 2.5972394e+08 2.5974132e+08    8580.0169    481.30443   0.63355154         6150 
    6160    8799.4598 2.5972394e+08 2.5974132e+08    8580.4083    481.05317   0.63435169         6160 
    6170    8798.2088 2.5972394e+08 2.5974132e+08    8580.7989    480.81689    0.6351525         6170 
    6180    8796.9328 2.5972394e+08 2.5974132e+08    8581.1887    480.59345   0.63595392         6180 
    6190    8795.6379 2.5972394e+08 2.5974132e+08    8581.5776    480.38839    0.6367559         6190 
    6200    8794.3294 2.5972394e+08 2.5974132e+08    8581.9654    480.20363   0.63755832         6200 
    6210    8793.0192 2.5972395e+08 2.5974132e+08    8582.3519    480.03931   0.63836092         6210 
    6220    8791.7036 2.5972395e+08 2.5974132e+08     8582.737    479.89869   0.63916377         6220 
    6230    8790.3718 2.5972395e+08 2.5974132e+08    8583.1207     479.7863   0.63996695         6230 
    6240    8789.0251 2.5972395e+08 2.5974132e+08    8583.5028    479.69367   0.64077056         6240 
    6250    8787.6715 2.5972395e+08 2.5974132e+08    8583.8834    479.61683   0.64157469         6250 
    6260    8786.3051 2.5972395e+08 2.5974132e+08    8584.2622    479.56151   0.64237937         6260 
    6270    8784.9176 2.5972395e+08 2.5974132e+08     8584.639    479.52548    0.6431844         6270 
    6280    8783.5177 2.5972395e+08 2.5974132e+08    8585.0134    479.49839   0.64398975         6280 
    6290       8782.1 2.5972395e+08 2.5974132e+08    8585.3853    479.47573   0.64479543         6290 
    6300    8780.6305 2.5972395e+08 2.5974132e+08    8585.7544    479.46402   0.64560149         6300 
    6310    8779.1174 2.5972396e+08 2.5974132e+08    8586.1202    479.46509   0.64640797         6310 
    6320    8777.5949 2.5972396e+08 2.5974132e+08    8586.4826    479.46788   0.64721492         6320 
    6330    8776.0648 2.5972396e+08 2.5974132e+08    8586.8412    479.47925   0.64802239         6330 
    6340    8774.5199 2.5972396e+08 2.5974132e+08    8587.1959    479.51515   0.64883044         6340 
    6350    8772.9845 2.5972396e+08 2.5974132e+08    8587.5462    479.57186     0.649639         6350 
    6360    8771.4882 2.5972396e+08 2.5974132e+08     8587.892    479.64337   0.65044789         6360 
    6370    8770.0222 2.5972396e+08 2.5974132e+08    8588.2331    479.73161   0.65125717         6370 
    6380    8768.5505 2.5972396e+08 2.5974132e+08    8588.5693    479.83682   0.65206693         6380 
    6390    8767.0596 2.5972396e+08 2.5974132e+08    8588.9003    479.95252   0.65287727         6390 
    6400    8765.5658 2.5972397e+08 2.5974132e+08    8589.2259    480.06811   0.65368826         6400 
    6410    8764.0766 2.5972397e+08 2.5974132e+08    8589.5461    480.18372   0.65449995         6410 
    6420    8762.5749 2.5972397e+08 2.5974132e+08    8589.8605     480.2981   0.65531238         6420 
    6430    8761.0564 2.5972397e+08 2.5974132e+08    8590.1689    480.41218   0.65612548         6430 
    6440    8759.5349 2.5972397e+08 2.5974132e+08    8590.4712    480.52662   0.65693915         6440 
    6450    8758.0159 2.5972397e+08 2.5974132e+08    8590.7672    480.64206   0.65775342         6450 
    6460    8756.4892 2.5972397e+08 2.5974132e+08    8591.0566    480.76267   0.65856831         6460 
    6470    8754.9503 2.5972397e+08 2.5974132e+08    8591.3393    480.89019   0.65938385         6470 
    6480    8753.4034 2.5972398e+08 2.5974132e+08    8591.6153    481.02267   0.66020008         6480 
    6490    8751.8527 2.5972398e+08 2.5974132e+08    8591.8843     481.1563   0.66101698         6490 
    6500    8750.2967 2.5972398e+08 2.5974132e+08    8592.1463    481.29203   0.66183457         6500 
    6510    8748.7335 2.5972398e+08 2.5974132e+08    8592.4013    481.42749   0.66265283         6510 
    6520    8747.1629 2.5972398e+08 2.5974132e+08    8592.6492    481.56245   0.66347175         6520 
    6530    8745.5827 2.5972398e+08 2.5974132e+08    8592.8902    481.69741    0.6642913         6530 
    6540         8744 2.5972398e+08 2.5974132e+08    8593.1243    481.82969   0.66511146         6540 
    6550    8742.4188 2.5972398e+08 2.5974132e+08    8593.3518    481.95799   0.66593225         6550 
    6560    8740.8315 2.5972399e+08 2.5974132e+08    8593.5729    482.08405   0.66675367         6560 
    6570    8739.2163 2.5972399e+08 2.5974132e+08    8593.7877    482.21097   0.66757574         6570 
    6580    8737.5751 2.5972399e+08 2.5974132e+08    8593.9966    482.33885   0.66839848         6580 
    6590    8735.9247 2.5972399e+08 2.5974132e+08    8594.1998    482.46825   0.66922188         6590 
    6600    8734.2585 2.5972399e+08 2.5974132e+08    8594.3979    482.60161   0.67004595         6600 
    6610    8732.5612 2.5972399e+08 2.5974132e+08     8594.591    482.74185   0.67087058         6610 
    6620    8730.8333  2.59724e+08 2.5974132e+08    8594.7795    482.89027   0.67169574         6620 
    6630    8729.0736  2.59724e+08 2.5974132e+08    8594.9638    483.04815   0.67252143         6630 
    6640      8727.28  2.59724e+08 2.5974132e+08    8595.1443    483.22001   0.67334764         6640 
    6650    8725.4616  2.59724e+08 2.5974132e+08    8595.3212    483.40974   0.67417436         6650 
    6660    8723.6214  2.59724e+08 2.5974132e+08     8595.495     483.6163   0.67500161         6660 
    6670    8721.7554  2.59724e+08 2.5974132e+08    8595.6662    483.84203   0.67582939         6670 
    6680    8719.8538  2.59724e+08 2.5974132e+08    8595.8349    484.09145   0.67665757         6680 
    6690     8717.909 2.5972401e+08 2.5974132e+08    8596.0015    484.36359   0.67748605         6690 
    6700    8715.9213 2.5972401e+08 2.5974132e+08    8596.1665    484.65707   0.67831479         6700 
    6710    8713.8854 2.5972401e+08 2.5974132e+08    8596.3303    484.97442   0.67914377         6710 
    6720    8711.7953 2.5972401e+08 2.5974132e+08    8596.4933    485.31815   0.67997296         6720 
    6730     8709.666 2.5972401e+08 2.5974132e+08    8596.6559    485.68495   0.68080235         6730 
    6740    8707.5118 2.5972402e+08 2.5974132e+08    8596.8188      486.073   0.68163192         6740 
    6750    8705.3278 2.5972402e+08 2.5974132e+08    8596.9824     486.4846   0.68246168         6750 
    6760    8703.1076 2.5972402e+08 2.5974132e+08    8597.1472     486.9229   0.68329165         6760 
    6770    8700.8553 2.5972402e+08 2.5974132e+08    8597.3137    487.38176   0.68412186         6770 
    6780    8698.5707 2.5972402e+08 2.5974132e+08    8597.4827     487.8584   0.68495233         6780 
    6790    8696.2539 2.5972403e+08 2.5974132e+08    8597.6546    488.34959   0.68578309         6790 
    6800     8693.899 2.5972403e+08 2.5974132e+08    8597.8302    488.85589   0.68661417         6800 
    6810    8691.5005 2.5972403e+08 2.5974132e+08    8598.0101    489.37836   0.68744558         6810 
    6820    8689.0663 2.5972403e+08 2.5974132e+08    8598.1951    489.91667   0.68827735         6820 
    6830    8686.6007 2.5972404e+08 2.5974132e+08    8598.3859    490.46428   0.68910948         6830 
    6840    8684.0839 2.5972404e+08 2.5974132e+08    8598.5831    491.02492   0.68994197         6840 
    6850    8681.5022 2.5972404e+08 2.5974132e+08    8598.7876    491.59694   0.69077483         6850 
    6860    8678.8611 2.5972404e+08 2.5974132e+08         8599     492.1773   0.69160805         6860 
    6870    8676.1653 2.5972405e+08 2.5974132e+08    8599.2212    492.76343   0.69244165         6870 
    6880    8673.4109 2.5972405e+08 2.5974132e+08    8599.4518    493.36599   0.69327563         6880 
    6890    8670.6027 2.5972405e+08 2.5974132e+08    8599.6926    493.99002   0.69411001         6890 
    6900    8667.7532 2.5972405e+08 2.5974132e+08    8599.9446    494.63015   0.69494482         6900 
    6910    8664.8653 2.5972406e+08 2.5974132e+08    8600.2086    495.28719   0.69578007         6910 
    6920    8661.9247 2.5972406e+08 2.5974132e+08    8600.4854    495.96864    0.6966158         6920 
    6930    8658.9151 2.5972406e+08 2.5974132e+08    8600.7758    496.67643   0.69745204         6930 
    6940    8655.8439 2.5972406e+08 2.5974132e+08    8601.0808    497.40751    0.6982888         6940 
    6950    8652.7314 2.5972407e+08 2.5974132e+08    8601.4012    498.15694    0.6991261         6950 
    6960    8649.5857 2.5972407e+08 2.5974132e+08    8601.7381    498.92674   0.69996395         6960 
    6970    8646.4025 2.5972407e+08 2.5974132e+08    8602.0924    499.71916   0.70080237         6970 
    6980    8643.1779 2.5972408e+08 2.5974132e+08     8602.465    500.53333   0.70164135         6980 
    6990    8639.9148 2.5972408e+08 2.5974132e+08    8602.8569    501.36974   0.70248089         6990 
    7000    8636.4975 2.5972408e+08 2.5974132e+08     8603.269    508.80597   0.70332101         7000 
    7010    8631.1603 2.5972409e+08 2.5974132e+08    8603.7055    508.72176   0.70416229         7010 
    7020    8626.1042 2.5972409e+08 2.5974132e+08    8604.1699     509.0501   0.70500512         7020 
    7030     8621.182 2.5972409e+08 2.5974132e+08    8604.6629    509.57283   0.70584931         7030 
    7040    8616.3328 2.597241e+08 2.5974132e+08    8605.1851    510.22682   0.70669473         7040 
    7050    8611.5076 2.597241e+08 2.5974132e+08    8605.7368    510.97822   0.70754128         7050 
    7060    8606.6751 2.5972411e+08 2.5974132e+08    8606.3188    511.80275   0.70838888         7060 
    7070     8601.828 2.5972411e+08 2.5974132e+08    8606.9313    512.67548   0.70923746         7070 
    7080    8596.9727 2.5972412e+08 2.5974132e+08     8607.575    513.57659   0.71008694         7080 
    7090     8592.104 2.5972412e+08 2.5974132e+08    8608.2504    514.50238   0.71093723         7090 
    7100    8587.2025 2.5972412e+08 2.5974132e+08    8608.9578    515.45423   0.71178828         7100 
    7110    8582.2645 2.5972413e+08 2.5974132e+08    8609.6978    516.42825   0.71264002         7110 
    7120    8577.3047 2.5972413e+08 2.5974132e+08    8610.4707     517.4185   0.71349234         7120 
    7130     8572.335 2.5972414e+08 2.5974132e+08    8611.2771    518.41999   0.71434519         7130 
    7140    8567.3569 2.5972414e+08 2.5974132e+08    8612.1175    519.43341   0.71519859         7140 
    7150    8562.3601 2.5972415e+08 2.5974132e+08    8612.9923    520.45714   0.71605251         7150 
    7160    8557.3306 2.5972415e+08 2.5974132e+08     8613.902    521.49236   0.71690695         7160 
    7170     8552.269 2.5972415e+08 2.5974132e+08     8614.847     522.5361   0.71776186         7170 
    7180    8547.1827 2.5972416e+08 2.5974132e+08    8615.8277    523.58609   0.71861723         7180 
    7190    8542.0737 2.5972416e+08 2.5974132e+08    8616.8446    524.64121   0.71947309         7190 
    7200    8536.9426 2.5972417e+08 2.5974132e+08    8617.8983    525.70509   0.72032945         7200 
    7210     8531.795 2.5972417e+08 2.5974132e+08    8618.9892    526.77468   0.72118635         7210 
    7220    8526.6357 2.5972417e+08 2.5974132e+08    8620.1179      527.848   0.72204383         7220 
    7230    8521.4627 2.5972418e+08 2.5974132e+08    8621.2848    528.92581   0.72290193         7230 
    7240    8516.2656 2.5972418e+08 2.5974132e+08    8622.4903    530.01165   0.72376066         7240 
    7250    8511.0454 2.5972419e+08 2.5974132e+08    8623.7348    531.10312      0.72462         7250 
    7260    8505.8133 2.5972419e+08 2.5974132e+08    8625.0188    532.19466   0.72547991         7260 
    7270    8500.5656 2.5972419e+08 2.5974132e+08    8626.3426    533.28235   0.72634044         7270 
    7280     8495.289 2.597242e+08 2.5974132e+08    8627.7066    534.37358   0.72720161         7280 
    7290    8489.9796 2.597242e+08 2.5974132e+08    8629.1111    535.46577   0.72806343         7290 
    7300    8484.6397 2.5972421e+08 2.5974132e+08    8630.5562    536.55295   0.72892593         7300 
    7310    8479.2721 2.5972421e+08 2.5974132e+08    8632.0422    537.63194   0.72978906         7310 
[...]
   48170    11.846457 2.597361e+08 2.5974132e+08    5205.5549     155.7442    7.7741448        31638 
   48180    11.758876 2.597361e+08 2.5974132e+08    5205.3696    155.95191    7.7771448        31638 
   48190    11.673284 2.597361e+08 2.5974132e+08    5205.2206    156.12157    7.7801448        31638 
   48200     11.58993 2.597361e+08 2.5974132e+08    5205.1097    156.25122    7.7831448        31638 
   48210    11.509035 2.597361e+08 2.5974132e+08     5205.038    156.33934    7.7861448        31638 
   48220    11.430779 2.597361e+08 2.5974132e+08    5205.0066    156.38498    7.7891448        31638 
   48230    11.355296 2.597361e+08 2.5974132e+08     5205.016    156.38778    7.7921448        31638 
   48240    11.282667 2.597361e+08 2.5974132e+08    5205.0662    156.34787    7.7951448        31638 
   48250    11.212924 2.597361e+08 2.5974132e+08    5205.1571     156.2656    7.7981448        31638 
   48260    11.146068 2.597361e+08 2.5974132e+08    5205.2879    156.14169    7.8011448        31638 
   48270    11.082056 2.597361e+08 2.5974132e+08    5205.4577    155.97727    7.8041448        31638 
   48280    11.020793 2.597361e+08 2.5974132e+08    5205.6649    155.77382    7.8071448        31638 
   48290    10.962127 2.597361e+08 2.5974132e+08    5205.9077     155.5332    7.8101448        31638 
   48300    10.905848 2.597361e+08 2.5974132e+08    5206.1839    155.25764    7.8131448        31638 
   48310    10.851716 2.597361e+08 2.5974132e+08    5206.4911    154.94957    7.8161448        31638 
   48320    10.799477 2.597361e+08 2.5974132e+08    5206.8263    154.61169    7.8191448        31638 
   48330    10.748871 2.597361e+08 2.5974132e+08    5207.1864    154.24708    7.8221448        31638 
   48340     10.69964 2.597361e+08 2.5974132e+08    5207.5681    153.85909    7.8251448        31638 
   48350    10.651533 2.597361e+08 2.5974132e+08    5207.9676    153.45141    7.8281448        31638 
   48360     10.60433 2.597361e+08 2.5974132e+08    5208.3811    153.02796    7.8311448        31638 
   48370    10.557841 2.597361e+08 2.5974132e+08    5208.8047    152.59292    7.8341448        31638 
   48380    10.511904 2.597361e+08 2.5974132e+08    5209.2342    152.15052    7.8371448        31638 
   48390    10.466408 2.597361e+08 2.5974132e+08    5209.6656    151.70501    7.8401448        31638 
   48400    10.421297 2.597361e+08 2.5974132e+08    5210.0946     151.2606    7.8431448        31638 
   48410    10.376579 2.597361e+08 2.5974132e+08    5210.5171    150.82144    7.8461448        31638 
   48420    10.332302 2.597361e+08 2.5974132e+08    5210.9289    150.39181    7.8491448        31638 
   48430    10.288552 2.597361e+08 2.5974132e+08    5211.3262     149.9757    7.8521448        31638 
   48440    10.245455 2.597361e+08 2.5974132e+08    5211.7049    149.57692    7.8551448        31638 
   48450    10.203175 2.597361e+08 2.5974132e+08    5212.0614    149.19911    7.8581448        31638 
   48460    10.161908 2.597361e+08 2.5974132e+08    5212.3921    148.84579    7.8611448        31638 
   48470    10.121874 2.597361e+08 2.5974132e+08    5212.6937    148.52019    7.8641448        31638 
   48480    10.083291 2.597361e+08 2.5974132e+08    5212.9632    148.22528    7.8671448        31638 
   48490    10.046381 2.597361e+08 2.5974132e+08    5213.1978    147.96376    7.8701448        31638 
   48500    10.011359 2.597361e+08 2.5974132e+08    5213.3951    147.73817    7.8731448        31638 
   48510    9.9784245 2.597361e+08 2.5974132e+08    5213.5529    147.55066    7.8761448        31638 
   48520    9.9477597 2.597361e+08 2.5974132e+08    5213.6697    147.40301    7.8791448        31638 
   48530    9.9195012 2.597361e+08 2.5974132e+08     5213.744     147.2965    7.8821448        31638 
   48540    9.8937398 2.597361e+08 2.5974132e+08    5213.7751    147.23213    7.8851448        31638 
   48550    9.8705078 2.597361e+08 2.5974132e+08    5213.7623    147.21071    7.8881448        31638 
   48560    9.8497939 2.597361e+08 2.5974132e+08    5213.7056    147.23263    7.8911448        31638 
   48570    9.8315436 2.597361e+08 2.5974132e+08    5213.6054    147.29773    7.8941448        31638 
   48580    9.8156562 2.597361e+08 2.5974132e+08    5213.4625    147.40539    7.8971448        31638 
   48590    9.8019875 2.597361e+08 2.5974132e+08    5213.2779    147.55468    7.9001448        31638 
   48600    9.7903469 2.597361e+08 2.5974132e+08    5213.0533    147.74404    7.9031448        31638 
   48610    9.7805193 2.597361e+08 2.5974132e+08    5212.7904    147.97163    7.9061448        31638 
   48620    9.7722643 2.597361e+08 2.5974132e+08    5212.4916    148.23513    7.9091448        31638 
   48630    9.7653217 2.597361e+08 2.5974132e+08    5212.1593    148.53177    7.9121448        31638 
   48640    9.7594277 2.597361e+08 2.5974132e+08    5211.7965    148.85863    7.9151448        31638 
   48650    9.7543224 2.597361e+08 2.5974132e+08    5211.4062     149.2124    7.9181448        31638 
   48660    9.7497484 2.597361e+08 2.5974132e+08    5210.9919    149.58945    7.9211448        31638 
   48670    9.7454589 2.597361e+08 2.5974132e+08    5210.5571    149.98585    7.9241448        31638 
   48680    9.7412267 2.597361e+08 2.5974132e+08    5210.1055    150.39731    7.9271448        31638 
   48690    9.7368612 2.597361e+08 2.5974132e+08    5209.6411    150.81957    7.9301448        31638 
   48700    9.7322252 2.597361e+08 2.5974132e+08     5209.168    151.24834    7.9331448        31638 
   48710    9.7272398 2.597361e+08 2.5974132e+08    5208.6902    151.67934    7.9361448        31638 
   48720    9.7218732 2.597361e+08 2.5974132e+08    5208.2119    152.10832    7.9391448        31638 
   48730    9.7161353 2.597361e+08 2.5974132e+08    5207.7372    152.53124    7.9421448        31638 
   48740    9.7100807 2.597361e+08 2.5974132e+08    5207.2702    152.94422    7.9451448        31638 
   48750    9.7038081 2.597361e+08 2.5974132e+08    5206.8149    153.34343    7.9481448        31638 
   48760    9.6974516 2.597361e+08 2.5974132e+08    5206.3752    153.72527    7.9511448        31638 
   48770    9.6911802 2.5973611e+08 2.5974132e+08     5205.955    154.08641    7.9541448        31638 
   48780     9.685189 2.5973611e+08 2.5974132e+08    5205.5577    154.42367    7.9571448        31638 
   48790    9.6796907 2.5973611e+08 2.5974132e+08    5205.1867    154.73409    7.9601448        31638 
   48800    9.6749051 2.5973611e+08 2.5974132e+08    5204.8451      155.015    7.9631448        31638 
   48810    9.6710485 2.5973611e+08 2.5974132e+08    5204.5356    155.26378    7.9661448        31638 
   48820    9.6683334 2.5973611e+08 2.5974132e+08    5204.2606    155.47809    7.9691448        31638 
   48830    9.6669644 2.5973611e+08 2.5974132e+08    5204.0223    155.65586    7.9721448        31638 
   48840    9.6671274 2.5973611e+08 2.5974132e+08    5203.8222    155.79548    7.9751448        31638 
   48850    9.6689717 2.5973611e+08 2.5974132e+08    5203.6616    155.89552    7.9781448        31638 
   48860    9.6726069 2.5973611e+08 2.5974132e+08    5203.5415    155.95506    7.9811448        31638 
   48870    9.6781041 2.5973611e+08 2.5974132e+08    5203.4621    155.97342    7.9841448        31638 
   48880    9.6854866 2.5973611e+08 2.5974132e+08    5203.4235    155.95024    7.9871448        31638 
   48890    9.6947276 2.5973611e+08 2.5974132e+08    5203.4252    155.88562    7.9901448        31638 
   48900    9.7057546 2.5973611e+08 2.5974132e+08    5203.4663    155.78006    7.9931448        31638 
   48910    9.7184534 2.5973611e+08 2.5974132e+08    5203.5458     155.6343    7.9961448        31638 
   48920    9.7326796 2.5973611e+08 2.5974132e+08    5203.6619    155.44949    7.9991448        31638 
   48930    9.7482605 2.5973611e+08 2.5974132e+08    5203.8127    155.22728    8.0021448        31638 
   48940    9.7649887 2.5973611e+08 2.5974132e+08    5203.9961    154.96991    8.0051448        31638 
   48950    9.7826342 2.5973611e+08 2.5974132e+08    5204.2095    154.67986    8.0081448        31638 
   48960    9.8009627 2.5973611e+08 2.5974132e+08    5204.4502    154.36019    8.0111448        31638 
   48970    9.8197401 2.5973611e+08 2.5974132e+08    5204.7151    154.01435    8.0141448        31638 
   48980    9.8387406 2.5973611e+08 2.5974132e+08     5205.001    153.64613    8.0171448        31638 
   48990    9.8577454 2.5973611e+08 2.5974132e+08    5205.3046     153.2596    8.0201448        31638 
   49000    9.8764695 2.5973611e+08 2.5974132e+08    5205.6222    152.87504    8.0231448        31638 
   49010    9.8937431 2.5973611e+08 2.5974132e+08    5205.9502    152.45828    8.0261448        31638 
   49020    9.9106987 2.597361e+08 2.5974132e+08    5206.2848    152.04047    8.0291448        31638 
   49030    9.9270643 2.597361e+08 2.5974132e+08    5206.6221    151.62284    8.0321448        31638 
   49040    9.9427466 2.597361e+08 2.5974132e+08    5206.9581    151.20858    8.0351448        31638 
   49050    9.9576871 2.597361e+08 2.5974132e+08    5207.2891    150.80171    8.0381448        31638 
   49060    9.9718919 2.597361e+08 2.5974132e+08     5207.611    150.40599    8.0411448        31638 
   49070    9.9854267 2.597361e+08 2.5974132e+08    5207.9201    150.02501    8.0441448        31638 
   49080    9.9983915 2.597361e+08 2.5974132e+08    5208.2128    149.66227    8.0471448        31638 
   49090    10.010919 2.597361e+08 2.5974132e+08    5208.4855    149.32089    8.0501448        31638 
   49100    10.023166 2.597361e+08 2.5974132e+08     5208.735    149.00378    8.0531448        31638 
   49110    10.035301 2.597361e+08 2.5974132e+08    5208.9581    148.71354    8.0561448        31638 
   49120    10.047508 2.597361e+08 2.5974132e+08     5209.152    148.45256    8.0591448        31638 
   49130    10.059979 2.597361e+08 2.5974132e+08    5209.3143    148.22294    8.0621448        31638 
   49140    10.072907 2.597361e+08 2.5974132e+08    5209.4426    148.02651    8.0651448        31638 
   49150    10.086465 2.597361e+08 2.5974132e+08    5209.5351    147.86489    8.0681448        31638 
   49160    10.100798 2.597361e+08 2.5974132e+08    5209.5904    147.73935    8.0711448        31638 
   49170    10.116018 2.597361e+08 2.5974132e+08    5209.6071    147.65088    8.0741448        31638 
   49180    10.132196 2.597361e+08 2.5974132e+08    5209.5846    147.60021    8.0771448        31638 
   49190     10.14936 2.597361e+08 2.5974132e+08    5209.5224     147.5878    8.0801448        31638 
   49200    10.167494 2.597361e+08 2.5974132e+08    5209.4205    147.61369    8.0831448        31638 
   49210    10.186531 2.597361e+08 2.5974132e+08    5209.2795    147.67773    8.0861448        31638 
   49220    10.206357 2.597361e+08 2.5974132e+08       5209.1    147.77939    8.0891448        31638 
   49230    10.226817 2.597361e+08 2.5974132e+08    5208.8831    147.91777    8.0921448        31638 
   49240    10.247724 2.597361e+08 2.5974132e+08    5208.6305    148.09163    8.0951448        31638 
   49250    10.268861 2.597361e+08 2.5974132e+08    5208.3438    148.29941    8.0981448        31638 
   49260    10.289987 2.597361e+08 2.5974132e+08    5208.0253    148.53915    8.1011448        31638 
   49270     10.31084 2.597361e+08 2.5974132e+08    5207.6772    148.80866    8.1041448        31638 
   49280    10.331156 2.597361e+08 2.5974132e+08    5207.3024    149.10545    8.1071448        31638 
   49290    10.350677 2.597361e+08 2.5974132e+08    5206.9036    149.42677    8.1101448        31638 
   49300    10.369161 2.597361e+08 2.5974132e+08    5206.4839    149.76959    8.1131448        31638 
   49310    10.386388 2.597361e+08 2.5974132e+08    5206.0466     150.1305    8.1161448        31638 
   49320    10.402166 2.597361e+08 2.5974132e+08     5205.595    150.50607    8.1191448        31638 
   49330    10.416333 2.5973611e+08 2.5974132e+08    5205.1327    150.89273    8.1221448        31638 
   49340    10.428773 2.5973611e+08 2.5974132e+08    5204.6632    151.28688    8.1251448        31638 
   49350    10.439412 2.5973611e+08 2.5974132e+08    5204.1901    151.68471    8.1281448        31638 
   49360    10.448224 2.5973611e+08 2.5974132e+08    5203.7172    152.08238    8.1311448        31638 
   49370    10.455228 2.5973611e+08 2.5974132e+08    5203.2481    152.47605    8.1341448        31638 
   49380    10.460485 2.5973611e+08 2.5974132e+08    5202.7863     152.8621    8.1371448        31638 
   49390    10.464104 2.5973611e+08 2.5974132e+08    5202.3355    153.23699    8.1401448        31638 
   49400    10.466234 2.5973611e+08 2.5974132e+08    5201.8992     153.5972    8.1431448        31638 
   49410    10.467051 2.5973611e+08 2.5974132e+08    5201.4805    153.93935    8.1461448        31638 
   49420    10.466753 2.5973611e+08 2.5974132e+08    5201.0828     154.2603    8.1491448        31638 
   49430    10.465553 2.5973611e+08 2.5974132e+08    5200.7089    154.55712    8.1521448        31638 
   49440    10.463671 2.5973611e+08 2.5974132e+08    5200.3617    154.82712    8.1551448        31638 
   49450    10.461334 2.5973611e+08 2.5974132e+08    5200.0436    155.06809    8.1581448        31638 
   49460    10.458762 2.5973611e+08 2.5974132e+08    5199.7569    155.27802    8.1611448        31638 
   49470    10.456159 2.5973611e+08 2.5974132e+08    5199.5036    155.45528    8.1641448        31638 
   49480    10.453704 2.5973611e+08 2.5974132e+08    5199.2852    155.59844    8.1671448        31638 
   49490    10.451542 2.5973611e+08 2.5974132e+08    5199.1032    155.70642    8.1701448        31638 
   49500    10.449782 2.5973611e+08 2.5974132e+08    5198.9585    155.77836    8.1731448        31638 
   49510    10.448495 2.5973611e+08 2.5974132e+08    5198.8517    155.81372    8.1761448        31638 
   49520    10.447711 2.5973611e+08 2.5974132e+08     5198.783    155.81237    8.1791448        31638 
   49530    10.447416 2.5973611e+08 2.5974132e+08    5198.7523    155.77433    8.1821448        31638 
   49540    10.447561 2.5973611e+08 2.5974132e+08    5198.7593    155.70018    8.1851448        31638 
   49550    10.448059 2.5973611e+08 2.5974132e+08    5198.8029    155.59069    8.1881448        31638 
   49560    10.448798 2.5973611e+08 2.5974132e+08    5198.8822     155.4469    8.1911448        31638 
   49570    10.449634 2.5973611e+08 2.5974132e+08    5198.9956    155.27018    8.1941448        31638 
   49580    10.450402 2.5973611e+08 2.5974132e+08    5199.1413    155.06223    8.1971448        31638 
   49590    10.450922 2.5973611e+08 2.5974132e+08    5199.3172    154.82498    8.2001448        31638 
   49600    10.451005 2.5973611e+08 2.5974132e+08     5199.521    154.56075    8.2031448        31638 
   49610    10.450459 2.5973611e+08 2.5974132e+08    5199.7502    154.27202    8.2061448        31638 
   49620    10.449096 2.5973611e+08 2.5974132e+08     5200.002    153.96148    8.2091448        31638 
   49630    10.446746 2.5973611e+08 2.5974132e+08    5200.2733    153.63218    8.2121448        31638 
   49640    10.443264 2.5973611e+08 2.5974132e+08    5200.5612    153.28735    8.2151448        31638 
   49650    10.438533 2.5973611e+08 2.5974132e+08    5200.8623    152.93046    8.2181448        31638 
   49660    10.432458 2.5973611e+08 2.5974132e+08    5201.1733    152.56514    8.2211448        31638 
   49670    10.424972 2.5973611e+08 2.5974132e+08    5201.4908     152.1949    8.2241448        31638 
   49680    10.416043 2.5973611e+08 2.5974132e+08    5201.8113    151.82318    8.2271448        31638 
   49690    10.405684 2.5973611e+08 2.5974132e+08    5202.1315    151.45346    8.2301448        31638 
   49700    10.393946 2.5973611e+08 2.5974132e+08    5202.4477    151.08932    8.2331448        31638 
   49710    10.380902 2.5973611e+08 2.5974132e+08    5202.7567    150.73411    8.2361448        31638 
   49720     10.36665 2.5973611e+08 2.5974132e+08    5203.0551    150.39104    8.2391448        31638 
   49730    10.351309 2.5973611e+08 2.5974132e+08    5203.3397    150.06326    8.2421448        31638 
   49740    10.335014 2.5973611e+08 2.5974132e+08    5203.6074    149.75385    8.2451448        31638 
   49750    10.317917 2.5973611e+08 2.5974132e+08    5203.8554    149.46552    8.2481448        31638 
   49760    10.300178 2.5973611e+08 2.5974132e+08    5204.0808     149.2008    8.2511448        31638 
   49770    10.281951 2.5973611e+08 2.5974132e+08    5204.2813    148.96201    8.2541448        31638 
   49780    10.263385 2.5973611e+08 2.5974132e+08    5204.4544    148.75128    8.2571448        31638 
   49790     10.24462 2.5973611e+08 2.5974132e+08    5204.5983    148.57041    8.2601448        31638 
   49800    10.225781 2.5973611e+08 2.5974132e+08    5204.7112    148.42078    8.2631448        31638 
   49810    10.206974 2.5973611e+08 2.5974132e+08    5204.7916    148.30358    8.2661448        31638 
   49820    10.188276 2.5973611e+08 2.5974132e+08    5204.8386    148.21981    8.2691448        31638 
   49830    10.169733 2.5973611e+08 2.5974132e+08    5204.8512    148.17006    8.2721448        31638 
   49840    10.151365 2.5973611e+08 2.5974132e+08     5204.829    148.15461    8.2751448        31638 
   49850    10.133162 2.5973611e+08 2.5974132e+08    5204.7719    148.17351    8.2781448        31638 
   49860    10.115082 2.5973611e+08 2.5974132e+08    5204.6801     148.2266    8.2811448        31638 
   49870    10.097053 2.5973611e+08 2.5974132e+08    5204.5541    148.31353    8.2841448        31638 
   49880    10.078979 2.5973611e+08 2.5974132e+08    5204.3947    148.43355    8.2871448        31638 
   49890    10.060736 2.5973611e+08 2.5974132e+08    5204.2032    148.58578    8.2901448        31638 
   49900     10.04218 2.5973611e+08 2.5974132e+08     5203.981     148.7689    8.2931448        31638 
   49910    10.023147 2.5973611e+08 2.5974132e+08    5203.7298    148.98133    8.2961448        31638 
   49920    10.003459 2.5973611e+08 2.5974132e+08    5203.4517    149.22126    8.2991448        31638 
   49930    9.9829379 2.5973611e+08 2.5974132e+08     5203.149    149.48656    8.3021448        31638 
   49940    9.9614082 2.5973611e+08 2.5974132e+08    5202.8241    149.77489    8.3051448        31638 
   49950    9.9387039 2.5973611e+08 2.5974132e+08    5202.4797    150.08365    8.3081448        31638 
   49960    9.9146715 2.5973611e+08 2.5974132e+08    5202.1187    150.40998    8.3111448        31638 
   49970    9.8891787 2.5973611e+08 2.5974132e+08     5201.744    150.75095    8.3141448        31638 
   49980    9.8621185 2.5973611e+08 2.5974132e+08    5201.3588     151.1033    8.3171448        31638 
   49990    9.8334128 2.5973611e+08 2.5974132e+08    5200.9663    151.46361    8.3201448        31638 
   50000    9.8029553 2.5973611e+08 2.5974132e+08    5200.5698    151.84146    8.3231448        31638 
Loop time of 1002.33 on 1 procs for 50000 steps with 15702 atoms

Performance: 1292.985 tau/day, 49.884 timesteps/s
99.8% CPU use with 1 MPI tasks x no OpenMP threads

MPI task timing breakdown:
Section |  min time  |  avg time  |  max time  |%varavg| %total
---------------------------------------------------------------
Pair    | 785.94     | 785.94     | 785.94     |   0.0 | 78.41
Neigh   | 108.06     | 108.06     | 108.06     |   0.0 | 10.78
Comm    | 0.70672    | 0.70672    | 0.70672    |   0.0 |  0.07
Output  | 38.642     | 38.642     | 38.642     |   0.0 |  3.86
Modify  | 66.065     | 66.065     | 66.065     |   0.0 |  6.59
Other   |            | 2.919      |            |       |  0.29

Nlocal:    15702 ave 15702 max 15702 min
Histogram: 1 0 0 0 0 0 0 0 0 0
Nghost:    0 ave 0 max 0 min
Histogram: 1 0 0 0 0 0 0 0 0 0
Neighs:    179837 ave 179837 max 179837 min
Histogram: 1 0 0 0 0 0 0 0 0 0
FullNghs:  222000 ave 222000 max 222000 min
Histogram: 1 0 0 0 0 0 0 0 0 0

Total # of neighbors = 222000
Ave neighs/atom = 14.1383
Neighbor list builds = 10000
Dangerous builds not checked

Total wall time: 0:16:42
