LAMMPS (7 Aug 2019)
processors         * 1 1 # manually assign processors to spatial regions
atom_style         meso
dimension          2
newton             on
boundary           f f p
units              lj
read_data          data.initial
  orthogonal box = (0 0 -0.001) to (4.001 8.001 0.001)
  16 by 1 by 1 MPI processor grid
  reading atoms ...
  15702 atoms
  reading velocities ...
  15702 velocities
  read_data CPU = 0.177253 secs

variable           h equal 0.03
variable           c equal 10.0 # soundspeed for Tait's EOS
variable           dt equal 0.1*${h}/${c} # upper limit of timestep based on CFL-like criterion
variable           dt equal 0.1*0.03/${c} 
variable           dt equal 0.1*0.03/10 
variable           nrun equal 15.0/${dt} # roughly estimate number of timesteps needed for 7.5 seconds
variable           nrun equal 15.0/0.0003 

group              bc    type 2 # assign group name "bc" to boundary particles (type 2)
6000 atoms in group bc
group              water type 1 # assign group name "water" to water particles (type 1)
9702 atoms in group water

set                type 1 meso/e 1000
  9702 settings made for meso/e
set		   type 2 meso/e 41670
  6000 settings made for meso/e

# use hybrid pairstyle which does density summation with cutoff ${h} every timestep (1)
pair_style         hybrid/overlay sph/rhosum 1 sph/taitwater sph/heatconduction
pair_coeff         * * sph/taitwater 1000.0 ${c} 1.0 ${h} # use target density of 1000, soundspeed ${c} for Tait's EOS
pair_coeff         * * sph/taitwater 1000.0 10 1.0 ${h} 
pair_coeff         * * sph/taitwater 1000.0 10 1.0 0.03 
pair_coeff         1 1 sph/rhosum ${h}
pair_coeff         1 1 sph/rhosum 0.03

pair_coeff	   * * sph/heatconduction 1.47e-3 ${h}
pair_coeff	   * * sph/heatconduction 1.47e-3 0.03


fix                gfix water gravity -9.81 vector 0 1 0 # add gravity. This fix also computes potential energy of mass in gravity field.
fix                2d_fix all enforce2d

variable   tempe 	atom  ((c_e_peratom-1000)/(0.2*4117)+300)
variable   tempera	atom  ((c_e_peratom-500)/(0.1*4117)+300)

compute            rho_peratom all meso/rho/atom
compute            e_peratom all meso/e/atom
compute            esph all reduce sum c_e_peratom
compute            ke all ke
variable           etot equal c_esph+c_ke+f_gfix




#                                     adjust nevery | min. allowed dt | max. allowed dt | max. travel distance per dt # // ${dt} ~= CFL criterion 0.1*h/c
fix                dtfix all dt/reset 1               NULL              ${dt}             0.0005 units box # use a variable timestep
fix                dtfix all dt/reset 1               NULL              0.0003             0.0005 units box 

# time-integrate position, velocities, internal energy and density of water particles
fix                integrate_water_fix water meso

# time-integrate only internal energy and density of boundary particles
fix                integrate_bc_fix bc meso/stationary
dump               dump_id all custom 100 dump.lammpstrj id type xs ys zs mass c_rho_peratom c_e_peratom fx fy v_tempe v_tempera
dump_modify        dump_id first yes
thermo             10
thermo_style       custom step ke c_esph v_etot f_gfix press time f_dtfix
thermo_modify      norm no

neigh_modify       every 5 delay 0 check no
variable           skin equal 0.3*${h}
variable           skin equal 0.3*0.03
neighbor           ${skin} bin # set Verlet list skin distance
neighbor           0.009 bin 
viscosity	   4P 1.856e-11 4209 0.04527 -3.376e-5

run                ${nrun}
run                50000
Neighbor list info ...
  update every 5 steps, delay 0 steps, check no
  max neighbors/atom: 2000, page size: 100000
  master list distance cutoff = 0.039
  ghost atom cutoff = 0.039
  binsize = 0.0195, bins = 206 411 1
  4 neighbor lists, perpetual/occasional/extra = 4 0 0
  (1) pair sph/rhosum, perpetual, skip from (4)
      attributes: full, newton on
      pair build: skip
      stencil: none
      bin: none
  (2) pair sph/taitwater, perpetual, half/full from (4)
      attributes: half, newton on
      pair build: halffull/newton
      stencil: none
      bin: none
  (3) pair sph/heatconduction, perpetual, copy from (2)
      attributes: half, newton on
      pair build: copy
      stencil: none
      bin: none
  (4) neighbor class addition, perpetual
      attributes: full, newton on
      pair build: full/bin/atomonly
      stencil: full/bin/2d
      bin: standard
Per MPI rank memory allocation (min/avg/max) = 3.234 | 4.472 | 7.203 Mbytes
Step KinEng c_esph v_etot f_gfix Press Time f_dtfix 
       0            0  2.59722e+08 2.5974132e+08    19320.854   -1.1300451            0            0 
      10    78.550149 2.5972192e+08 2.5974132e+08    19320.223    15.619915 0.0023456042           10 
      20    79.912835 2.5972192e+08 2.5974132e+08    19318.545    24.636272  0.004561421           18 
      30    55.134874 2.5972195e+08 2.5974132e+08    19315.063    10.814876 0.0073703088           28 
      40    32.813934 2.5972198e+08 2.5974132e+08    19309.692     4.262274  0.010370309           28 
      50     50.85344 2.5972197e+08 2.5974132e+08     19302.56    11.402421   0.01335848           45 
      60     57.91475 2.5972197e+08 2.5974132e+08    19293.668    5.4636438   0.01635848           45 
      70    54.552758 2.5972198e+08 2.5974132e+08    19283.184    1.8571548   0.01935848           45 
      80    66.822622 2.5972198e+08 2.5974132e+08    19271.173    6.1941366   0.02235848           45 
      90    81.274517 2.5972198e+08 2.5974132e+08    19257.635    3.7232965   0.02535848           45 
     100    88.231807 2.5972199e+08 2.5974132e+08     19242.58    2.1215423   0.02835848           45 
     110    102.56279 2.5972199e+08 2.5974132e+08    19226.046    6.7234292   0.03135848           45 
     120    122.51366 2.5972199e+08 2.5974132e+08    19208.082    9.6290919   0.03435848           45 
     130    137.11907 2.5972199e+08 2.5974132e+08    19188.707    10.190668   0.03735848           45 
     140    152.35074  2.59722e+08 2.5974132e+08    19167.923    12.590965   0.04035848           45 
     150      173.722  2.59722e+08 2.5974132e+08    19145.745    16.127136   0.04335848           45 
     160     195.7339  2.59722e+08 2.5974132e+08    19122.207    18.543637   0.04635848           45 
     170    215.56023 2.5972201e+08 2.5974132e+08    19097.343    22.128053   0.04935848           45 
     180    236.85123 2.5972201e+08 2.5974132e+08    19071.181    26.717827   0.05235848           45 
     190    261.75704 2.5972202e+08 2.5974132e+08    19043.737    30.956753   0.05535848           45 
     200    286.95064 2.5972202e+08 2.5974132e+08     19015.03    35.088547   0.05835848           45 
     210    311.79685 2.5972202e+08 2.5974132e+08    18985.079    39.426403   0.06135848           45 
     220    338.84707 2.5972203e+08 2.5974132e+08    18953.901    43.991878   0.06435848           45 
     230    367.79108 2.5972203e+08 2.5974132e+08    18921.515    48.579318   0.06735848           45 
     240    396.72126 2.5972204e+08 2.5974132e+08    18887.937    53.420488   0.07035848           45 
     250     425.9361 2.5972204e+08 2.5974132e+08    18853.188    58.722455   0.07335848           45 
     260    456.89323 2.5972205e+08 2.5974132e+08    18817.288    64.529995   0.07635848           45 
     270    488.79779 2.5972205e+08 2.5974132e+08    18780.255    70.195283   0.07935848           45 
     280    520.54072 2.5972206e+08 2.5974132e+08    18742.487    75.786299  0.082329077          280 
     290    551.61975 2.5972206e+08 2.5974132e+08    18705.366    81.377127  0.085169441          290 
     300    584.02906 2.5972207e+08 2.5974132e+08    18667.144    87.284795  0.088019256          300 
     310    615.85751 2.5972208e+08 2.5974132e+08    18629.635     93.07332   0.09074833          310 
     320    646.53268 2.5972208e+08 2.5974132e+08    18593.132    99.050994  0.093344913          320 
     330    677.70252 2.5972209e+08 2.5974132e+08    18556.047    105.75937  0.095927454          330 
     340     708.5644 2.5972209e+08 2.5974132e+08    18519.714    112.99923  0.098407102          340 
     350    738.82573 2.597221e+08 2.5974132e+08    18484.387      120.498   0.10077335          350 
     360    769.15054 2.597221e+08 2.5974132e+08    18448.999    128.43246    0.1031022          360 
     370    799.93303 2.5972211e+08 2.5974132e+08    18412.879    136.93436   0.10543892          370 
     380    830.46024 2.5972211e+08 2.5974132e+08    18376.748    145.65931   0.10773794          380 
     390    860.57023 2.5972212e+08 2.5974132e+08     18340.69    154.25171   0.10999619          390 
     400    890.56367 2.5972213e+08 2.5974132e+08    18304.286    162.45028    0.1122416          400 
     410    920.87756 2.5972213e+08 2.5974132e+08    18267.226     170.0778   0.11449376          410 
     420    951.51333 2.5972214e+08 2.5974132e+08    18229.957    176.98321   0.11672624          420 
     430    982.71418 2.5972215e+08 2.5974132e+08    18192.403    183.28794   0.11894483          430 
     440    1014.7612 2.5972215e+08 2.5974132e+08    18153.981    189.26025   0.12118439          440 
     450    1047.2046 2.5972216e+08 2.5974132e+08    18114.897    194.99781   0.12343287          450 
     460    1079.3656 2.5972217e+08 2.5974132e+08    18076.038     200.4645   0.12564034          460 
     470    1111.4501 2.5972217e+08 2.5974132e+08    18037.455    205.67604   0.12780613          470 
     480    1143.6116 2.5972218e+08 2.5974132e+08    17999.024    210.65029   0.12993902          480 
     490    1175.8506 2.5972218e+08 2.5974132e+08    17960.581    215.43803   0.13204949          490 
     500    1207.8889 2.5972219e+08 2.5974132e+08    17922.368    220.03606   0.13412563          500 
     510    1239.4352 2.597222e+08 2.5974132e+08    17884.834    224.42427   0.13614481          510 
     520    1270.5933 2.597222e+08 2.5974132e+08    17847.965    228.67677   0.13810972          520 
     530    1301.4155 2.5972221e+08 2.5974132e+08    17811.676    232.84682   0.14002657          530 
     540    1331.9359 2.5972221e+08 2.5974132e+08    17775.852    236.96721   0.14190287          540 
     550    1362.2239 2.5972222e+08 2.5974132e+08    17740.381    241.04638   0.14374569          550 
     560    1392.3184 2.5972222e+08 2.5974132e+08    17705.218    245.04629   0.14555821          560 
     570    1422.1346 2.5972223e+08 2.5974132e+08    17670.494    248.91542   0.14733471          570 
     580    1451.7117 2.5972223e+08 2.5974132e+08    17636.197    252.64017   0.14907675          580 
     590    1481.0565 2.5972224e+08 2.5974132e+08    17602.305    256.22024   0.15078623          590 
     600    1510.1459 2.5972224e+08 2.5974132e+08    17568.826    259.64917   0.15246366          600 
     610    1538.8993 2.5972225e+08 2.5974132e+08    17535.851    262.93828   0.15410521          610 
     620     1567.391 2.5972225e+08 2.5974132e+08     17503.29    266.12605   0.15571609          620 
     630    1595.7462 2.5972225e+08 2.5974132e+08    17471.011    269.25487   0.15730344          630 
     640    1624.0907 2.5972226e+08 2.5974132e+08    17438.901    272.36197   0.15887324          640 
     650    1652.4947 2.5972226e+08 2.5974132e+08    17406.871    275.46652    0.1604301          650 
     660     1680.997 2.5972226e+08 2.5974132e+08    17374.873    278.56745   0.16197668          660 
     670     1709.595 2.5972227e+08 2.5974132e+08    17342.912    281.64184   0.16351292          670 
     680     1738.192 2.5972227e+08 2.5974132e+08     17311.09    284.65793   0.16503415          680 
     690    1766.7584 2.5972227e+08 2.5974132e+08    17279.407    287.60293   0.16654061          690 
     700    1795.2503 2.5972228e+08 2.5974132e+08    17247.872    290.47754   0.16803219          700 
     710    1823.6683 2.5972228e+08 2.5974132e+08    17216.454    293.29884   0.16951049          710 
     720    1852.0596 2.5972228e+08 2.5974132e+08    17185.082    296.08787   0.17097908          720 
     730    1880.4488 2.5972229e+08 2.5974132e+08    17153.735     298.8496   0.17243916          730 
     740    1908.8795 2.5972229e+08 2.5974132e+08    17122.384    301.58735   0.17389204          740 
     750    1937.4304 2.5972229e+08 2.5974132e+08    17090.964    304.30307   0.17534094          750 
     760    1966.1517 2.597223e+08 2.5974132e+08    17059.425    306.99394   0.17678816          760 
     770    1995.0677 2.597223e+08 2.5974132e+08    17027.746     309.6518   0.17823462          770 
     780    2024.1643 2.597223e+08 2.5974132e+08    16995.949    312.26742   0.17967933          780 
     790    2053.3556 2.597223e+08 2.5974132e+08    16964.118    314.82426   0.18111861          790 
     800    2082.5729 2.5972231e+08 2.5974132e+08    16932.307    317.31268   0.18254999          800 
     810    2111.8192 2.5972231e+08 2.5974132e+08    16900.507    319.72543   0.18397411          810 
     820    2141.0876 2.5972231e+08 2.5974132e+08    16868.706    322.05836   0.18539158          820 
     830    2170.3605 2.5972231e+08 2.5974132e+08      16836.9    324.31474   0.18680268          830 
     840    2199.6095 2.5972232e+08 2.5974132e+08     16805.11    326.50492   0.18820666          840 
     850     2228.807 2.5972232e+08 2.5974132e+08    16773.368      328.631    0.1896023          850 
     860    2257.9646 2.5972232e+08 2.5974132e+08    16741.664    330.70392   0.19099021          860 
     870    2287.1083 2.5972232e+08 2.5974132e+08     16709.97     332.7396   0.19237175          870 
     880    2316.2816 2.5972233e+08 2.5974132e+08    16678.242    334.76539     0.193749          880 
     890     2345.532 2.5972233e+08 2.5974132e+08     16646.43     336.8112   0.19512423          890 
     900    2374.9363 2.5972233e+08 2.5974132e+08    16614.497    338.89943   0.19649909          900 
     910    2404.5317 2.5972233e+08 2.5974132e+08    16582.451    341.04709   0.19787329          910 
     920    2434.3057 2.5972234e+08 2.5974132e+08    16550.342    343.25666   0.19924473          920 
     930    2464.2447 2.5972234e+08 2.5974132e+08    16518.195    345.52824    0.2006125          930 
     940    2494.2936 2.5972234e+08 2.5974132e+08    16486.063    347.84687   0.20197431          940 
     950    2524.4662 2.5972234e+08 2.5974132e+08    16453.915    350.20402   0.20333171          950 
     960    2554.7589 2.5972234e+08 2.5974132e+08    16421.722    352.59528   0.20468596          960 
     970    2585.1726 2.5972235e+08 2.5974132e+08     16389.47    355.01227   0.20603777          970 
     980     2615.703 2.5972235e+08 2.5974132e+08    16357.157    357.42255   0.20738736          980 
     990    2646.2976 2.5972235e+08 2.5974132e+08    16324.825    359.78207   0.20873309          990 
    1000    2676.8716 2.5972235e+08 2.5974132e+08    16292.578    362.04136   0.21007075         1000 
    1010    2707.4327 2.5972235e+08 2.5974132e+08    16260.416    364.15747   0.21140048         1010 
    1020    2737.9795 2.5972235e+08 2.5974132e+08     16228.34    366.09048   0.21272234         1020 
    1030    2768.4337 2.5972236e+08 2.5974132e+08    16196.414    367.81478   0.21403379         1030 
    1040    2798.7494 2.5972236e+08 2.5974132e+08    16164.633    369.32615   0.21533511         1040 
    1050    2828.8944 2.5972236e+08 2.5974132e+08    16132.965    370.64321   0.21662766         1050 
    1060    2858.8265 2.5972236e+08 2.5974132e+08    16101.382    371.80925   0.21791267         1060 
    1070    2888.5253 2.5972236e+08 2.5974132e+08     16069.86    372.88582   0.21919111         1070 
    1080    2918.0324 2.5972236e+08 2.5974132e+08    16038.386    373.93388   0.22046361         1080 
    1090    2947.4292 2.5972237e+08 2.5974132e+08    16006.953    375.01097   0.22173049         1090 
    1100    2976.7901 2.5972237e+08 2.5974132e+08    15975.559    376.16683   0.22299182         1100 
    1110    3006.1775 2.5972237e+08 2.5974132e+08    15944.209    377.43232   0.22424753         1110 
    1120    3035.6563 2.5972237e+08 2.5974132e+08    15912.904    378.81509   0.22549754         1120 
    1130    3065.2687 2.5972237e+08 2.5974132e+08    15881.645    380.31311   0.22674195         1130 
    1140    3095.0145 2.5972238e+08 2.5974132e+08    15850.429    381.91125    0.2279809         1140 
    1150    3124.8983 2.5972238e+08 2.5974132e+08    15819.247    383.58099   0.22921478         1150 
    1160     3154.906 2.5972238e+08 2.5974132e+08    15788.093     385.2897   0.23044392         1160 
    1170     3184.996 2.5972238e+08 2.5974132e+08     15756.96    386.99985   0.23166855         1170 
    1180    3215.0809 2.5972238e+08 2.5974132e+08    15725.884    388.66737   0.23288732         1180 
    1190    3245.1309 2.5972238e+08 2.5974132e+08    15694.852    390.26231   0.23410075         1190 
    1200    3275.1858 2.5972238e+08 2.5974132e+08    15663.841    391.74349   0.23530985         1200 
    1210    3305.2819 2.5972238e+08 2.5974132e+08    15632.826    393.08634   0.23651554         1210 
    1220    3335.4685 2.5972238e+08 2.5974132e+08    15601.788    394.27139   0.23771863         1220 
    1230    3365.7825 2.5972238e+08 2.5974132e+08     15570.71    395.29681   0.23891983         1230 
    1240    3396.2138 2.5972238e+08 2.5974132e+08     15539.59    396.16778   0.24011916         1240 
    1250     3426.665 2.5972239e+08 2.5974132e+08    15508.482     396.8959   0.24131465         1250 
    1260    3457.0898 2.5972239e+08 2.5974132e+08    15477.387    397.50258   0.24250632         1260 
    1270    3487.4401 2.5972239e+08 2.5974132e+08    15446.298    398.02125   0.24369441         1270 
    1280    3517.6601 2.5972239e+08 2.5974132e+08    15415.211    398.49164   0.24487916         1280 
    1290    3547.7414 2.5972239e+08 2.5974132e+08    15384.122       398.93   0.24606078         1290 
    1300    3577.6914 2.5972239e+08 2.5974132e+08    15353.026     399.3525   0.24723948         1300 
    1310    3607.5136 2.5972239e+08 2.5974132e+08    15321.918     399.7718   0.24841548         1310 
    1320    3637.2198 2.5972239e+08 2.5974132e+08    15290.791    400.20135   0.24958907         1320 
    1330     3666.819 2.5972239e+08 2.5974132e+08     15259.66    400.64708   0.25075981         1330 
    1340    3696.2913 2.597224e+08 2.5974132e+08     15228.56    401.10744    0.2519263         1340 
    1350    3725.6705 2.597224e+08 2.5974132e+08    15197.479    401.58134   0.25308912         1350 
    1360    3754.9924 2.597224e+08 2.5974132e+08      15166.4    402.07038   0.25424895         1360 
    1370    3784.3148 2.597224e+08 2.5974132e+08    15135.307    402.56908    0.2554064         1370 
    1380    3813.6655 2.597224e+08 2.5974132e+08    15104.188    403.07526   0.25656198         1380 
    1390    3843.0527 2.597224e+08 2.5974132e+08    15073.036    403.58501   0.25771604         1390 
    1400    3872.4688 2.5972241e+08 2.5974132e+08    15041.847    404.10812   0.25886874         1400 
    1410    3901.9026 2.5972241e+08 2.5974132e+08    15010.624    404.64145   0.26002002         1410 
    1420    3931.3419 2.5972241e+08 2.5974132e+08    14979.375    405.18499   0.26116968         1420 
    1430    3960.7745 2.5972241e+08 2.5974132e+08    14948.109    405.74067   0.26231747         1430 
    1440    3990.1731 2.5972241e+08 2.5974132e+08    14916.834    406.31383   0.26346311         1440 
    1450    4019.5272 2.5972242e+08 2.5974132e+08    14885.565     406.9041   0.26460615         1450 
    1460    4048.8002 2.5972242e+08 2.5974132e+08    14854.337    407.51049   0.26574535         1460 
    1470    4077.9676 2.5972242e+08 2.5974132e+08    14823.161    408.13142   0.26688037         1470 
    1480     4107.013 2.5972242e+08 2.5974132e+08     14792.04    408.76726   0.26801115         1480 
    1490    4135.9434 2.5972242e+08 2.5974132e+08    14760.973    409.41364   0.26913785         1490 
    1500    4164.7658 2.5972243e+08 2.5974132e+08    14729.951     410.0757   0.27026079         1500 
    1510    4193.5347 2.5972243e+08 2.5974132e+08    14698.967    410.74531   0.27138034         1510 
    1520    4222.2786 2.5972243e+08 2.5974132e+08    14668.012    411.41732   0.27249683         1520 
    1530    4251.0101 2.5972243e+08 2.5974132e+08    14637.081    412.08766   0.27361051         1530 
    1540     4279.713 2.5972243e+08 2.5974132e+08    14606.171    412.75139   0.27472153         1540 
    1550    4308.3898 2.5972244e+08 2.5974132e+08    14575.281    413.40476   0.27583001         1550 
    1560    4337.0591 2.5972244e+08 2.5974132e+08    14544.408    414.04263   0.27693609         1560 
    1570    4365.7252 2.5972244e+08 2.5974132e+08    14513.549    414.65983   0.27803994         1570 
    1580    4394.4172 2.5972244e+08 2.5974132e+08      14482.7    415.24622   0.27914174         1580 
    1590      4423.12 2.5972245e+08 2.5974132e+08    14451.858    415.80072   0.28024165         1590 
    1600    4451.8134 2.5972245e+08 2.5974132e+08    14421.022    416.31052   0.28133973         1600 
    1610    4480.4881 2.5972245e+08 2.5974132e+08    14390.195    416.77625     0.282436         1610 
    1620    4509.1525 2.5972245e+08 2.5974132e+08    14359.378    417.19611   0.28353038         1620 
    1630    4537.7887 2.5972245e+08 2.5974132e+08    14328.577     417.5703   0.28462275         1630 
    1640    4566.3824 2.5972246e+08 2.5974132e+08    14297.797    417.88898   0.28571299         1640 
    1650    4594.9455 2.5972246e+08 2.5974132e+08    14267.042    418.15108   0.28680101         1650 
    1660    4623.4661 2.5972246e+08 2.5974132e+08    14236.314    418.36574   0.28788674         1660 
    1670    4651.9062 2.5972246e+08 2.5974132e+08    14205.616    418.54079   0.28897016         1670 
    1680    4680.2643 2.5972247e+08 2.5974132e+08    14174.948    418.69032   0.29005126         1680 
    1690    4708.5598 2.5972247e+08 2.5974132e+08    14144.311    418.82765   0.29113006         1690 
    1700     4736.795 2.5972247e+08 2.5974132e+08    14113.707    418.96614   0.29220657         1700 
    1710    4764.9518 2.5972247e+08 2.5974132e+08    14083.135    419.11574   0.29328084         1710 
    1720    4793.0238 2.5972248e+08 2.5974132e+08    14052.595    419.29269   0.29435293         1720 
    1730    4821.0591 2.5972248e+08 2.5974132e+08    14022.085       419.51   0.29542295         1730 
    1740    4849.0565 2.5972248e+08 2.5974132e+08    13991.602    419.77704   0.29649102         1740 
    1750    4877.0015 2.5972248e+08 2.5974132e+08    13961.161     420.0929   0.29755671         1750 
    1760    4904.8826 2.5972249e+08 2.5974132e+08    13930.783    420.46878   0.29861933         1760 
    1770    4932.7205 2.5972249e+08 2.5974132e+08    13900.464    420.91142   0.29967901         1770 
    1780    4960.5093 2.5972249e+08 2.5974132e+08    13870.202    421.43584   0.30073591         1780 
    1790    4988.2264 2.5972249e+08 2.5974132e+08    13839.992    422.04714   0.30179023         1790 
    1800    5015.8989 2.5972249e+08 2.5974132e+08    13809.831    422.74669   0.30284211         1800 
    1810    5043.5382 2.597225e+08 2.5974132e+08    13779.719    423.53477   0.30389159         1810 
    1820    5071.1551 2.597225e+08 2.5974132e+08    13749.659    424.40869   0.30493862         1820 
    1830    5098.7435 2.597225e+08 2.5974132e+08    13719.658    425.36827   0.30598301         1830 
    1840    5126.2785 2.597225e+08 2.5974132e+08    13689.722    426.41571   0.30702455         1840 
    1850    5153.7442 2.5972251e+08 2.5974132e+08    13659.858    427.55016   0.30806304         1850 
    1860    5181.1526 2.5972251e+08 2.5974132e+08     13630.07     428.7603   0.30909838         1860 
    1870    5208.4935 2.5972251e+08 2.5974132e+08    13600.359     430.0408   0.31013058         1870 
    1880    5235.7597 2.5972251e+08 2.5974132e+08     13570.72    431.39022    0.3111598         1880 
    1890    5262.9376 2.5972252e+08 2.5974132e+08    13541.146    432.81376    0.3121863         1890 
    1900    5290.0388 2.5972252e+08 2.5974132e+08    13511.629    434.30804   0.31321043         1900 
    1910    5317.0828 2.5972252e+08 2.5974132e+08    13482.159    435.86647   0.31423254         1910 
    1920    5344.0714 2.5972252e+08 2.5974132e+08    13452.727    437.48818   0.31525294         1920 
    1930    5370.9931 2.5972253e+08 2.5974132e+08    13423.327    439.17032   0.31627184         1930 
    1940    5397.8267 2.5972253e+08 2.5974132e+08    13393.957    440.91197   0.31728938         1940 
    1950    5424.5904 2.5972253e+08 2.5974132e+08    13364.615    442.70494   0.31830561         1950 
    1960    5451.3065 2.5972253e+08 2.5974132e+08    13335.301    444.54818   0.31932053         1960 
    1970    5477.9691 2.5972254e+08 2.5974132e+08    13306.016    446.43965   0.32033414         1970 
    1980    5504.5656 2.5972254e+08 2.5974132e+08     13276.76    448.37624   0.32134643         1980 
    1990    5531.1123 2.5972254e+08 2.5974132e+08    13247.534    450.35774   0.32235742         1990 
    2000    5557.6072 2.5972254e+08 2.5974132e+08    13218.344    452.37805   0.32336689         2000 
    2010    5584.0168 2.5972255e+08 2.5974132e+08     13189.21    454.42722   0.32437416         2010 
    2020    5610.3366 2.5972255e+08 2.5974132e+08    13160.133    456.50408   0.32537926         2020 
    2030    5636.5824 2.5972255e+08 2.5974132e+08    13131.111    458.60909   0.32638224         2030 
    2040    5662.7491 2.5972256e+08 2.5974132e+08    13102.141    460.74255    0.3273832         2040 
    2050    5688.8118 2.5972256e+08 2.5974132e+08    13073.223    462.89656   0.32838222         2050 
    2060    5714.7845 2.5972256e+08 2.5974132e+08    13044.353    465.06896   0.32937941         2060 
    2070    5740.6911 2.5972256e+08 2.5974132e+08    13015.529    467.26004   0.33037489         2070 
    2080    5766.5321 2.5972257e+08 2.5974132e+08    12986.748    469.47298   0.33136878         2080 
    2090    5792.2865 2.5972257e+08 2.5974132e+08    12958.008    471.70897   0.33236116         2090 
    2100    5817.9835 2.5972257e+08 2.5974132e+08    12929.307    473.95831   0.33335211         2100 
    2110    5843.6246 2.5972258e+08 2.5974132e+08    12900.647    476.22255   0.33434166         2110 
    2120    5869.1929 2.5972258e+08 2.5974132e+08    12872.025    478.50194   0.33532985         2120 
    2130    5894.6876 2.5972258e+08 2.5974132e+08    12843.441    480.80496   0.33631672         2130 
    2140     5920.126 2.5972259e+08 2.5974132e+08    12814.895    483.12349   0.33730234         2140 
    2150    5945.5087 2.5972259e+08 2.5974132e+08    12786.383    485.45394    0.3382868         2150 
    2160    5970.8686 2.5972259e+08 2.5974132e+08    12757.905    487.79462   0.33927019         2160 
    2170    5996.1996 2.597226e+08 2.5974132e+08    12729.455    490.15592   0.34025266         2170 
    2180    6021.4871 2.597226e+08 2.5974132e+08    12701.031    492.52696   0.34123434         2180 
    2190    6046.7326 2.597226e+08 2.5974132e+08    12672.627    494.90437   0.34221541         2190 
    2200    6071.9648 2.597226e+08 2.5974132e+08     12644.24    497.28327     0.343196         2200 
    2210     6097.182 2.5972261e+08 2.5974132e+08    12615.865    499.67017   0.34417627         2210 
    2220    6122.3579 2.5972261e+08 2.5974132e+08    12587.497    502.06579   0.34515634         2220 
    2230    6147.4888 2.5972261e+08 2.5974132e+08    12559.133    504.46438    0.3461363         2230 
    2240    6172.5779 2.5972262e+08 2.5974132e+08    12530.771    506.86584   0.34711624         2240 
    2250    6197.6395 2.5972262e+08 2.5974132e+08    12502.409    509.26212    0.3480962         2250 
    2260    6222.6796 2.5972262e+08 2.5974132e+08    12474.044    511.64825   0.34907622         2260 
    2270    6247.6717 2.5972263e+08 2.5974132e+08     12445.69    514.02052    0.3500558         2270 
    2280    6272.6037 2.5972263e+08 2.5974132e+08    12417.349    516.38903   0.35103479         2280 
    2290     6297.478 2.5972263e+08 2.5974132e+08    12389.018    518.74406   0.35201334         2290 
    2300    6322.2951 2.5972264e+08 2.5974132e+08    12360.698    521.08155   0.35299128         2300 
    2310    6347.0325 2.5972264e+08 2.5974132e+08    12332.403    523.40984   0.35396814         2310 
    2320    6371.6743 2.5972264e+08 2.5974132e+08    12304.137    525.72698   0.35494375         2320 
    2330    6396.2308 2.5972265e+08 2.5974132e+08      12275.9    528.03867   0.35591807         2330 
    2340    6420.6933 2.5972265e+08 2.5974132e+08    12247.695    530.33823   0.35689097         2340 
    2350    6445.0403 2.5972266e+08 2.5974132e+08    12219.526    532.63539   0.35786234         2350 
    2360    6469.2793 2.5972266e+08 2.5974132e+08    12191.396    534.92593   0.35883205         2360 
    2370    6493.3703 2.5972266e+08 2.5974132e+08    12163.308    537.22115   0.35980002         2370 
    2380    6517.3028 2.5972267e+08 2.5974132e+08    12135.263    539.52051   0.36076626         2380 
    2390    6541.0612 2.5972267e+08 2.5974132e+08     12107.26    541.82628   0.36173088         2390 
    2400    6564.6398 2.5972268e+08 2.5974132e+08    12079.295    544.14567   0.36269404         2400 
    2410    6588.0194 2.5972268e+08 2.5974132e+08    12051.365    546.49257    0.3636559         2410 
    2420    6611.2132 2.5972269e+08 2.5974132e+08    12023.469    548.87537   0.36461665         2420 
    2430    6634.2123 2.5972269e+08 2.5974132e+08    11995.606    551.30794   0.36557642         2430 
    2440    6656.9444 2.597227e+08 2.5974132e+08    11967.775    553.81391    0.3665353         2440 
    2450    6679.2693 2.597227e+08 2.5974132e+08    11939.978     556.4423   0.36749332         2450 
    2460    6700.9532 2.5972271e+08 2.5974132e+08     11912.22    559.23002   0.36845047         2460 
    2470    6721.7298 2.5972271e+08 2.5974132e+08    11884.505    562.20893   0.36940668         2470 
    2480    6741.6062 2.5972272e+08 2.5974132e+08    11856.839    565.38732   0.37036187         2480 
    2490    6761.1658 2.5972273e+08 2.5974132e+08    11829.237     568.6885   0.37131571         2490 
    2500    6780.2035 2.5972274e+08 2.5974132e+08    11802.876    571.85368   0.37222754         2500 
    2510    6797.4311 2.5972274e+08 2.5974132e+08    11779.017    574.73906   0.37305359         2510 
    2520    6812.8065 2.5972275e+08 2.5974132e+08    11757.338    577.39361   0.37380482         2520 
    2530    6827.1556 2.5972276e+08 2.5974132e+08     11737.08     579.8542   0.37450739         2530 
    2540    6840.9304 2.5972276e+08 2.5974132e+08    11718.053    582.09825   0.37516771         2540 
    2550    6853.9184 2.5972277e+08 2.5974132e+08    11700.421    584.12202   0.37578001         2550 
    2560     6866.055 2.5972277e+08 2.5974132e+08     11683.81    586.03139   0.37635717         2560 
    2570     6877.392 2.5972278e+08 2.5974132e+08    11667.899    587.90192   0.37691031         2570 
    2580    6888.1194 2.5972278e+08 2.5974132e+08    11652.378    589.78948   0.37745011         2580 
    2590    6898.5014 2.5972279e+08 2.5974132e+08    11636.969    591.73296    0.3779863         2590 
    2600    6908.8267 2.5972279e+08 2.5974132e+08    11621.448    593.74903   0.37852659         2600 
    2610    6919.3635 2.597228e+08 2.5974132e+08    11605.664    595.83399   0.37907633         2610 
    2620    6930.2679 2.597228e+08 2.5974132e+08    11589.517    597.99106   0.37963902         2620 
    2630       6941.6 2.5972281e+08 2.5974132e+08    11572.946    600.21281   0.38021681         2630 
    2640    6953.3527 2.5972281e+08 2.5974132e+08    11555.893    602.49464   0.38081178         2640 
    2650    6965.3821 2.5972282e+08 2.5974132e+08    11538.404    604.81869   0.38142238         2650 
    2660    6976.9508 2.5972282e+08 2.5974132e+08    11521.428    607.06873   0.38201544         2660 
    2670    6987.9435 2.5972283e+08 2.5974132e+08    11505.099     609.2507   0.38258632         2670 
    2680    6998.5337 2.5972283e+08 2.5974132e+08    11489.287    611.38914   0.38313945         2680 
    2690    7008.8887 2.5972284e+08 2.5974132e+08    11473.889    613.47502   0.38367846         2690 
    2700     7019.096 2.5972284e+08 2.5974132e+08    11458.805    615.51444   0.38420681         2700 
    2710    7029.1747 2.5972285e+08 2.5974132e+08    11443.923    617.51245    0.3847284         2710 
    2720    7039.1121 2.5972285e+08 2.5974132e+08    11429.122    619.50387   0.38524744         2720 
    2730    7048.9824 2.5972286e+08 2.5974132e+08    11414.271    621.50893   0.38576861         2730 
    2740    7058.9421 2.5972286e+08 2.5974132e+08    11399.204    623.56203   0.38629763         2740 
    2750    7069.1673 2.5972287e+08 2.5974132e+08     11383.75    625.68926    0.3868406         2750 
    2760    7079.7969 2.5972287e+08 2.5974132e+08    11367.746    627.90382   0.38740327         2760 
    2770    7090.8715 2.5972288e+08 2.5974132e+08    11351.051    630.23968   0.38799062         2770 
    2780    7102.2511 2.5972288e+08 2.5974132e+08    11333.855    632.66446   0.38859603         2780 
    2790    7113.6062 2.5972289e+08 2.5974132e+08    11316.676     635.1128   0.38920127         2790 
    2800    7125.0661 2.597229e+08 2.5974132e+08    11299.332    637.58674   0.38981275         2800 
    2810    7136.5264 2.597229e+08 2.5974132e+08    11282.032    640.04207   0.39042317         2810 
    2820    7147.9414 2.5972291e+08 2.5974132e+08     11264.83    642.45218   0.39103057         2820 
    2830    7159.2711 2.5972291e+08 2.5974132e+08    11247.662    644.83998   0.39163723         2830 
    2840    7170.4973 2.5972292e+08 2.5974132e+08    11230.445    647.21261   0.39224615         2840 
    2850    7181.5673 2.5972293e+08 2.5974132e+08    11213.231    649.57777   0.39285546         2850 
    2860    7192.5409 2.5972293e+08 2.5974132e+08    11196.093    651.92167   0.39346265         2860 
    2870    7203.5528 2.5972294e+08 2.5974132e+08    11178.922     654.2572   0.39407159         2870 
    2880    7214.6323 2.5972294e+08 2.5974132e+08    11161.623    656.61565   0.39468567         2880 
    2890    7225.7124 2.5972295e+08 2.5974132e+08    11144.276    658.98141   0.39530209         2890 
    2900    7236.8094 2.5972296e+08 2.5974132e+08    11126.921    661.34998   0.39591949         2900 
    2910    7248.0715 2.5972296e+08 2.5974132e+08    11109.438    663.71588   0.39654216         2910 
    2920    7259.5378 2.5972297e+08 2.5974132e+08    11091.761    666.08692   0.39717249         2920 
    2930      7271.08 2.5972298e+08 2.5974132e+08    11074.072    668.42863     0.397804         2930 
    2940    7282.5097 2.5972298e+08 2.5974132e+08    11056.636    670.71523   0.39842726         2940 
    2950    7293.7734 2.5972299e+08 2.5974132e+08    11039.495    672.95048   0.39904077         2950 
    2960    7304.9224 2.5972299e+08 2.5974132e+08    11022.611    675.12999   0.39964588         2960 
    2970    7315.9603  2.59723e+08 2.5974132e+08     11005.94     677.2544   0.40024415         2970 
    2980    7326.8334  2.59723e+08 2.5974132e+08    10989.439    679.33862   0.40083715         2980 
    2990    7337.5517 2.5972301e+08 2.5974132e+08    10973.059    681.39324   0.40142661         2990 
    3000    7348.1629 2.5972302e+08 2.5974132e+08     10956.76    683.42777   0.40201404         3000 
    3010    7358.7222 2.5972302e+08 2.5974132e+08    10940.511    685.44908   0.40260057         3010 
    3020    7369.2678 2.5972303e+08 2.5974132e+08    10924.292    687.45035   0.40318691         3020 
    3030    7379.7973 2.5972303e+08 2.5974132e+08    10908.094     689.4365    0.4037735         3030 
    3040    7390.3056 2.5972304e+08 2.5974132e+08    10891.908     691.4105   0.40436059         3040 
    3050    7400.7587 2.5972304e+08 2.5974132e+08    10875.729    693.38292   0.40494848         3050 
    3060    7411.1492 2.5972305e+08 2.5974132e+08    10859.544    695.35889   0.40553763         3060 
    3070    7421.5123 2.5972306e+08 2.5974132e+08    10843.335    697.33396   0.40612879         3070 
    3080    7431.9179 2.5972306e+08 2.5974132e+08    10827.072    699.29632   0.40672307         3080 
    3090    7442.4188 2.5972307e+08 2.5974132e+08     10810.72     701.2383   0.40732185         3090 
    3100    7452.9775 2.5972307e+08 2.5974132e+08    10794.238    703.17934   0.40792665         3100 
    3110    7463.6001 2.5972308e+08 2.5974132e+08    10777.588     705.1174   0.40853897         3110 
    3120    7474.2846 2.5972309e+08 2.5974132e+08    10760.778    707.06506   0.40915861         3120 
    3130    7484.9084 2.5972309e+08 2.5974132e+08    10744.009    708.99287   0.40977819         3130 
    3140    7495.4498 2.597231e+08 2.5974132e+08    10727.309     710.9072   0.41039673         3140 
    3150    7505.9378 2.597231e+08 2.5974132e+08    10710.668    712.80189   0.41101462         3150 
    3160    7516.4022 2.5972311e+08 2.5974132e+08    10694.078    714.67755   0.41163216         3160 
    3170    7526.8315 2.5972312e+08 2.5974132e+08    10677.535     716.5483   0.41224955         3170 
    3180     7537.211 2.5972312e+08 2.5974132e+08     10661.04    718.40567   0.41286675         3180 
    3190    7547.5149 2.5972313e+08 2.5974132e+08    10644.636    720.25372   0.41348215         3190 
    3200    7557.7526 2.5972313e+08 2.5974132e+08    10628.319    722.09584   0.41409594         3200 
    3210    7567.9391 2.5972314e+08 2.5974132e+08    10612.052    723.94378   0.41470953         3210 
    3220    7578.0831 2.5972315e+08 2.5974132e+08    10595.794    725.79466   0.41532442         3220 
    3230    7588.1909 2.5972315e+08 2.5974132e+08    10579.532    727.65015   0.41594122         3230 
    3240    7598.3055 2.5972316e+08 2.5974132e+08    10563.279    729.50655   0.41655943         3240 
    3250    7608.4961 2.5972317e+08 2.5974132e+08    10547.007    731.35488   0.41718015         3250 
    3260    7618.7614 2.5972317e+08 2.5974132e+08    10530.684    733.20116   0.41780469         3260 
    3270    7629.0856 2.5972318e+08 2.5974132e+08    10514.278    735.04904   0.41843426         3270 
    3280    7639.4951 2.5972318e+08 2.5974132e+08    10497.769    736.89587   0.41906979         3280 
    3290    7649.9718 2.5972319e+08 2.5974132e+08    10481.147    738.74666   0.41971167         3290 
    3300    7660.4317 2.597232e+08 2.5974132e+08    10464.508     740.5884   0.42035634         3300 
    3310    7670.8625 2.597232e+08 2.5974132e+08     10447.89    742.40586   0.42100229         3310 
    3320    7681.2332 2.5972321e+08 2.5974132e+08    10431.284    744.21284   0.42164994         3320 
    3330    7691.4676 2.5972321e+08 2.5974132e+08    10414.805    746.00146   0.42229483         3330 
    3340    7701.5908 2.5972322e+08 2.5974132e+08    10398.472    747.76707   0.42293617         3340 
    3350    7711.6126 2.5972323e+08 2.5974132e+08    10382.263    749.50891   0.42357484         3350 
    3360    7721.5586 2.5972323e+08 2.5974132e+08    10366.156    751.22799    0.4242117         3360 
    3370    7731.4455 2.5972324e+08 2.5974132e+08    10350.131    752.93033    0.4248475         3370 
    3380    7741.2858 2.5972325e+08 2.5974132e+08    10334.174    754.61867   0.42548287         3380 
    3390    7751.0943 2.5972325e+08 2.5974132e+08    10318.271    756.28453   0.42611841         3390 
    3400    7760.8929 2.5972326e+08 2.5974132e+08    10302.405    757.91982   0.42675473         3400 
    3410    7770.6895 2.5972326e+08 2.5974132e+08     10286.56    759.52659   0.42739257         3410 
    3420    7780.5159 2.5972327e+08 2.5974132e+08    10270.716     761.0984   0.42803278         3420 
    3430    7790.3826 2.5972328e+08 2.5974132e+08    10254.852    762.63917   0.42867625         3430 
    3440     7800.276 2.5972328e+08 2.5974132e+08     10238.95    764.16047   0.42932382         3440 
    3450    7810.1894 2.5972329e+08 2.5974132e+08    10222.993    765.67711   0.42997619         3450 
    3460    7820.1398 2.5972329e+08 2.5974132e+08    10206.978     767.1805   0.43063365         3460 
    3470     7830.067 2.597233e+08 2.5974132e+08    10190.989    768.66792   0.43129274         3470 
    3480     7839.876 2.5972331e+08 2.5974132e+08    10175.125     770.1333   0.43194943         3480 
    3490    7849.5841 2.5972331e+08 2.5974132e+08     10159.37    771.59185   0.43260438         3490 
    3500    7859.2045 2.5972332e+08 2.5974132e+08    10143.708    773.04148   0.43325823         3500 
    3510    7868.7582 2.5972332e+08 2.5974132e+08    10128.128    774.49513   0.43391155         3510 
    3520    7878.2761 2.5972333e+08 2.5974132e+08    10112.608    775.95082   0.43456517         3520 
    3530    7887.7422 2.5972334e+08 2.5974132e+08    10097.137    777.40392   0.43521967         3530 
    3540    7897.1297 2.5972334e+08 2.5974132e+08    10081.693    778.85688   0.43587597         3540 
    3550    7906.5186 2.5972335e+08 2.5974132e+08    10066.253    780.29062   0.43653507         3550 
    3560    7915.9307 2.5972335e+08 2.5974132e+08      10050.8    781.72127   0.43719786         3560 
    3570     7925.254 2.5972336e+08 2.5974132e+08    10035.406    783.14178    0.4378612         3570 
    3580    7934.4838 2.5972337e+08 2.5974132e+08    10020.119    784.53254   0.43852307         3580 
    3590    7943.6431 2.5972337e+08 2.5974132e+08    10004.944    785.89625   0.43918324         3590 
    3600    7952.7082 2.5972338e+08 2.5974132e+08    9989.8768    787.24883    0.4398419         3600 
    3610    7961.7259 2.5972338e+08 2.5974132e+08    9974.9047    788.57377   0.44049961         3610 
    3620     7970.716 2.5972339e+08 2.5974132e+08    9960.0091    789.87312   0.44115719         3620 
    3630    7979.6857 2.597234e+08 2.5974132e+08    9945.1712    791.15499   0.44181551         3630 
    3640     7988.636 2.597234e+08 2.5974132e+08    9930.3909     792.4188   0.44247459         3640 
    3650    7997.5283 2.5972341e+08 2.5974132e+08    9915.6603    793.66824   0.44313483         3650 
    3660    8006.3891 2.5972341e+08 2.5974132e+08    9900.9606    794.89578   0.44379711         3660 
    3670     8015.234 2.5972342e+08 2.5974132e+08    9886.2737    796.10935    0.4444623         3670 
    3680     8024.061 2.5972343e+08 2.5974132e+08    9871.5944    797.30069   0.44513071         3680 
    3690     8032.881 2.5972343e+08 2.5974132e+08    9856.9599    798.45127   0.44580067         3690 
    3700    8041.6831 2.5972344e+08 2.5974132e+08    9842.3981    799.57447   0.44647095         3700 
    3710    8050.4585 2.5972344e+08 2.5974132e+08    9827.9298    800.66412   0.44714059         3710 
    3720     8059.192 2.5972345e+08 2.5974132e+08     9813.547    801.72057   0.44780997         3720 
    3730     8067.837 2.5972345e+08 2.5974132e+08     9799.245    802.75773   0.44847929         3730 
    3740    8076.4373 2.5972346e+08 2.5974132e+08    9785.0193    803.77494   0.44914878         3740 
    3750    8085.0238 2.5972346e+08 2.5974132e+08    9770.8621    804.77332   0.44981883         3750 
    3760    8093.5933 2.5972347e+08 2.5974132e+08     9756.762    805.76036      0.45049         3760 
    3770    8102.1527 2.5972348e+08 2.5974132e+08    9742.7054    806.73034   0.45116297         3770 
    3780    8110.6457 2.5972348e+08 2.5974132e+08     9728.739    807.67359   0.45183554         3780 
    3790    8119.0334 2.5972349e+08 2.5974132e+08    9714.8874    808.59663   0.45250651         3790 
    3800    8127.3618 2.5972349e+08 2.5974132e+08    9701.1351    809.49208   0.45317662         3800 
    3810    8135.6604 2.597235e+08 2.5974132e+08    9687.4702    810.36858   0.45384645         3810 
    3820    8143.9289 2.597235e+08 2.5974132e+08    9673.8853    811.23239   0.45451637         3820 
    3830    8152.1701 2.5972351e+08 2.5974132e+08    9660.3759    812.07967   0.45518659         3830 
    3840     8160.396 2.5972351e+08 2.5974132e+08    9646.9393    812.90885   0.45585726         3840 
    3850    8168.5758 2.5972352e+08 2.5974132e+08    9633.5723    813.71913   0.45652856         3850 
    3860    8176.6593 2.5972352e+08 2.5974132e+08    9620.2702    814.53227   0.45720073         3860 
    3870     8184.703 2.5972353e+08 2.5974132e+08    9607.0272    815.33667   0.45787409         3870 
    3880    8192.7215 2.5972353e+08 2.5974132e+08    9593.8374    816.13875   0.45854898         3880 
    3890    8200.6751 2.5972354e+08 2.5974132e+08    9580.6961    816.94896    0.4592257         3890 
    3900    8208.6282 2.5972354e+08 2.5974132e+08    9567.6022    817.74599   0.45990435         3900 
    3910    8216.6069 2.5972355e+08 2.5974132e+08    9554.5659    818.52407   0.46058448         3910 
    3920    8224.5349 2.5972355e+08 2.5974132e+08    9541.6145    819.29159    0.4612647         3920 
    3930    8232.4381 2.5972356e+08 2.5974132e+08    9528.7473    820.03579   0.46194508         3930 
    3940    8240.3487 2.5972356e+08 2.5974132e+08    9515.9627    820.76042   0.46262574         3940 
    3950    8248.2181 2.5972357e+08 2.5974132e+08    9503.2596    821.48392   0.46330677         3950 
    3960    8256.0824 2.5972357e+08 2.5974132e+08    9490.6357    822.19727   0.46398833         3960 
    3970    8263.9836 2.5972358e+08 2.5974132e+08    9478.0869    822.89238   0.46467068         3970 
    3980    8271.8714 2.5972358e+08 2.5974132e+08    9465.6179     823.5835   0.46535361         3980 
    3990    8279.7323 2.5972359e+08 2.5974132e+08    9453.2526    824.26935   0.46603583         3990 
    4000    8287.5625 2.5972359e+08 2.5974132e+08    9440.9891      824.939   0.46671747         4000 
    4010    8295.3388 2.597236e+08 2.5974132e+08    9428.8226    825.60461    0.4673988         4010 
    4020    8303.1091 2.597236e+08 2.5974132e+08    9416.7499    826.24689   0.46808002         4020 
    4030    8310.8563 2.5972361e+08 2.5974132e+08    9404.7691    826.87807   0.46876126         4030 
    4040    8318.5734 2.5972361e+08 2.5974132e+08    9392.8795    827.50552    0.4694426         4040 
    4050     8326.352 2.5972361e+08 2.5974132e+08    9381.0808     828.1025   0.47012408         4050 
    4060     8334.174 2.5972362e+08 2.5974132e+08    9369.3723    828.67971   0.47080577         4060 
    4070    8341.9713 2.5972362e+08 2.5974132e+08    9357.7521    829.25138   0.47148781         4070 
    4080    8349.7966 2.5972362e+08 2.5974132e+08     9346.218    829.80579   0.47217038         4080 
    4090    8357.6656 2.5972363e+08 2.5974132e+08    9334.7676    830.35147   0.47285366         4090 
    4100    8365.5226 2.5972363e+08 2.5974132e+08    9323.3988      830.899    0.4735378         4100 
    4110    8373.3894 2.5972364e+08 2.5974132e+08    9312.1109     831.4407   0.47422292         4110 
    4120     8381.326 2.5972364e+08 2.5974132e+08    9300.9046    831.96599   0.47490899         4120 
    4130    8389.2854 2.5972364e+08 2.5974132e+08    9289.7816    832.48686   0.47559596         4130 
    4140    8397.2275 2.5972364e+08 2.5974132e+08    9278.7438    832.99954   0.47628372         4140 
    4150    8405.1734 2.5972365e+08 2.5974132e+08     9267.794    833.49745   0.47697214         4150 
    4160    8413.1272 2.5972365e+08 2.5974132e+08    9256.9349    833.99031   0.47766106         4160 
    4170    8421.0719 2.5972365e+08 2.5974132e+08    9246.1687    834.48789   0.47835034         4170 
    4180    8429.0363 2.5972366e+08 2.5974132e+08    9235.4968    834.97982   0.47903992         4180 
    4190    8437.0435 2.5972366e+08 2.5974132e+08    9224.9195    835.47049   0.47972977         4190 
    4200    8445.0958 2.5972366e+08 2.5974132e+08    9214.4363    835.95873   0.48041994         4200 
    4210    8453.1967 2.5972366e+08 2.5974132e+08    9204.0459    836.43718   0.48111052         4210 
    4220    8461.3061 2.5972367e+08 2.5974132e+08    9193.7468    836.91757   0.48180161         4220 
    4230    8469.4059 2.5972367e+08 2.5974132e+08    9183.5379    837.38445   0.48249329         4230 
    4240    8477.4866 2.5972367e+08 2.5974132e+08    9173.4191    837.83786   0.48318559         4240 
    4250    8485.5485 2.5972367e+08 2.5974132e+08    9163.3903    838.27071   0.48387852         4250 
    4260    8493.6229 2.5972367e+08 2.5974132e+08    9153.4521    838.67586   0.48457205         4260 
    4270    8501.7277 2.5972368e+08 2.5974132e+08    9143.6044    839.05399   0.48526618         4270 
    4280    8509.8485 2.5972368e+08 2.5974132e+08    9133.8477    839.39584    0.4859609         4280 
    4290    8517.9598 2.5972368e+08 2.5974132e+08    9124.1817    839.69887   0.48665622         4290 
    4300    8526.0519 2.5972368e+08 2.5974132e+08    9114.6064    839.97176   0.48735215         4300 
    4310    8534.1657 2.5972368e+08 2.5974132e+08     9105.122    840.20798    0.4880487         4310 
    4320    8542.2844 2.5972368e+08 2.5974132e+08    9095.7286    840.40451   0.48874587         4320 
    4330     8550.364 2.5972368e+08 2.5974132e+08    9086.4267    840.56939   0.48944361         4330 
    4340    8558.4706 2.5972368e+08 2.5974132e+08    9077.2167    840.67783    0.4901419         4340 
    4350     8566.616 2.5972369e+08 2.5974132e+08    9068.0994    840.73861   0.49084068         4350 
    4360    8574.7655 2.5972369e+08 2.5974132e+08    9059.0753    840.75112   0.49153989         4360 
    4370    8582.9119 2.5972369e+08 2.5974132e+08    9050.1455    840.70487   0.49223944         4370 
    4380    8591.0125 2.5972369e+08 2.5974132e+08     9041.311    840.61687   0.49293925         4380 
    4390    8599.0624 2.5972369e+08 2.5974132e+08    9032.5724    840.48717   0.49363928         4390 
    4400    8607.0804 2.5972369e+08 2.5974132e+08    9023.9302    840.31047   0.49433947         4400 
    4410    8615.0548 2.5972369e+08 2.5974132e+08    9015.3846    840.08141   0.49503984         4410 
    4420    8623.0028 2.5972369e+08 2.5974132e+08    9006.9353    839.79538   0.49574038         4420 
    4430    8630.9669 2.5972369e+08 2.5974132e+08    8998.5819    839.45362   0.49644115         4430 
    4440    8638.8895 2.5972369e+08 2.5974132e+08    8990.3238    839.05978   0.49714219         4440 
    4450    8646.7324 2.5972369e+08 2.5974132e+08    8982.1601    838.62139   0.49784356         4450 
    4460    8654.5284 2.5972369e+08 2.5974132e+08    8974.0902    838.12688   0.49854532         4460 
    4470    8662.2727 2.5972369e+08 2.5974132e+08    8966.1131    837.57883   0.49924754         4470 
    4480     8669.929 2.5972369e+08 2.5974132e+08    8958.2279    836.97875   0.49995029         4480 
    4490    8677.5153 2.5972369e+08 2.5974132e+08    8950.4338    836.33137   0.50065365         4490 
    4500    8685.1029 2.5972369e+08 2.5974132e+08    8942.7297    835.63634   0.50135771         4500 
    4510    8692.6558 2.5972369e+08 2.5974132e+08    8935.1149    834.90655   0.50206253         4510 
    4520    8700.1488 2.5972369e+08 2.5974132e+08    8927.5889     834.1404   0.50276817         4520 
    4530    8707.6387 2.5972369e+08 2.5974132e+08    8920.1511    833.33389   0.50347469         4530 
    4540     8715.114 2.5972369e+08 2.5974132e+08    8912.8015    832.50665   0.50418211         4540 
    4550    8722.5552 2.5972369e+08 2.5974132e+08      8905.54    831.65376   0.50489047         4550 
    4560    8729.9744 2.5972369e+08 2.5974132e+08    8898.3667    830.76717   0.50559975         4560 
    4570    8737.3811 2.5972369e+08 2.5974132e+08    8891.2817    829.85016   0.50630995         4570 
    4580    8744.7784 2.5972369e+08 2.5974132e+08    8884.2856    828.90415   0.50702101         4580 
    4590    8752.1693 2.5972369e+08 2.5974132e+08    8877.3789    827.93517   0.50773287         4590 
    4600    8759.5285 2.5972369e+08 2.5974132e+08    8870.5622    826.95353   0.50844545         4600 
    4610     8766.829 2.5972369e+08 2.5974132e+08    8863.8359    825.95708   0.50915868         4610 
    4620    8774.0807 2.5972369e+08 2.5974132e+08    8857.2001    824.94571    0.5098725         4620 
    4630    8781.3081 2.5972369e+08 2.5974132e+08    8850.6551    823.90976   0.51058684         4630 
    4640     8788.501 2.5972369e+08 2.5974132e+08    8844.2007    822.85275   0.51130168         4640 
    4650    8795.6795 2.5972369e+08 2.5974132e+08    8837.8366    821.76795   0.51201697         4650 
    4660    8802.8621 2.5972369e+08 2.5974132e+08    8831.5627    820.65475   0.51273271         4660 
    4670    8810.0217 2.5972369e+08 2.5974132e+08    8825.3786    819.51213   0.51344885         4670 
    4680    8817.1492 2.5972368e+08 2.5974132e+08    8819.2841    818.33898   0.51416534         4680 
    4690    8824.2455 2.5972368e+08 2.5974132e+08     8813.279    817.13217   0.51488217         4690 
    4700    8831.3274 2.5972368e+08 2.5974132e+08    8807.3629    815.88408    0.5155993         4700 
    4710     8838.398 2.5972368e+08 2.5974132e+08    8801.5353    814.58649   0.51631672         4710 
    4720    8845.4406 2.5972368e+08 2.5974132e+08    8795.7955     813.2346   0.51703446         4720 
    4730     8852.494 2.5972368e+08 2.5974132e+08    8790.1427    811.82709   0.51775252         4730 
    4740    8859.5895 2.5972368e+08 2.5974132e+08    8784.5762     810.3536   0.51847096         4740 
    4750    8866.6563 2.5972367e+08 2.5974132e+08    8779.0949    808.81309   0.51918982         4750 
    4760    8873.6558 2.5972367e+08 2.5974132e+08    8773.6978    807.20458   0.51990917         4760 
    4770    8880.6298 2.5972367e+08 2.5974132e+08    8768.3838    805.53226   0.52062908         4770 
    4780    8887.5779 2.5972367e+08 2.5974132e+08     8763.152    803.80795   0.52134963         4780 
    4790    8894.4715 2.5972367e+08 2.5974132e+08    8758.0013     802.0322   0.52207087         4790 
    4800    8901.3682 2.5972367e+08 2.5974132e+08    8752.9307     800.1989    0.5227929         4800 
    4810    8908.2908 2.5972366e+08 2.5974132e+08    8747.9394    798.30425   0.52351578         4810 
    4820    8915.2198 2.5972366e+08 2.5974132e+08    8743.0267     796.3522   0.52423956         4820 
    4830    8922.1309 2.5972366e+08 2.5974132e+08    8738.1918    794.33082   0.52496428         4830 
    4840    8928.9895 2.5972366e+08 2.5974132e+08    8733.4341    792.25449   0.52568996         4840 
    4850    8935.7766 2.5972366e+08 2.5974132e+08     8728.753    790.13337   0.52641662         4850 
    4860    8942.5439 2.5972365e+08 2.5974132e+08    8724.1483    787.96783   0.52714423         4860 
    4870    8949.2988 2.5972365e+08 2.5974132e+08      8719.62    785.75774   0.52787276         4870 
    4880    8956.0123 2.5972365e+08 2.5974132e+08    8715.1681    783.50961   0.52860215         4880 
    4890    8962.7019 2.5972365e+08 2.5974132e+08    8710.7928    781.20747    0.5293323         4890 
    4900    8969.3768 2.5972364e+08 2.5974132e+08    8706.4943    778.86137   0.53006311         4900 
    4910      8976.04 2.5972364e+08 2.5974132e+08    8702.2728    776.47232    0.5307945         4910 
    4920    8982.6625 2.5972364e+08 2.5974132e+08    8698.1279    774.03495   0.53152641         4920 
    4930    8989.2077 2.5972364e+08 2.5974132e+08    8694.0594    771.55881   0.53225878         4930 
    4940    8995.7345 2.5972363e+08 2.5974132e+08    8690.0672    769.03633   0.53299155         4940 
    4950    9002.2456 2.5972363e+08 2.5974132e+08    8686.1509    766.47306   0.53372465         4950 
    4960    9008.7059 2.5972363e+08 2.5974132e+08    8682.3104    763.87086   0.53445804         4960 
    4970    9015.1359 2.5972363e+08 2.5974132e+08    8678.5448    761.22111   0.53519171         4970 
    4980    9021.5221 2.5972362e+08 2.5974132e+08    8674.8537    758.52934   0.53592566         4980 
    4990    9027.8733 2.5972362e+08 2.5974132e+08    8671.2361    755.79961   0.53665991         4990 
    5000    9034.1954 2.5972362e+08 2.5974132e+08    8667.6913    753.02362   0.53739452         5000 
    5010    9040.4728 2.5972362e+08 2.5974132e+08    8664.2183    750.21056   0.53812956         5010 
    5020    9046.7112 2.5972361e+08 2.5974132e+08    8660.8163    747.35996   0.53886512         5020 
    5030    9052.8792 2.5972361e+08 2.5974132e+08    8657.4846    744.48407   0.53960129         5030 
    5040    9058.9782 2.5972361e+08 2.5974132e+08    8654.2224    741.57309   0.54033818         5040 
    5050    9065.0207 2.597236e+08 2.5974132e+08     8651.029    738.63186   0.54107586         5050 
    5060    9070.9668 2.597236e+08 2.5974132e+08    8647.9039    735.66484   0.54181441         5060 
    5070    9076.8344 2.597236e+08 2.5974132e+08    8644.8469    732.67297    0.5425538         5070 
    5080    9082.6544 2.597236e+08 2.5974132e+08    8641.8581     729.6596   0.54329398         5080 
    5090    9088.4129 2.5972359e+08 2.5974132e+08    8638.9384    726.64201   0.54403462         5090 
    5100    9094.1013 2.5972359e+08 2.5974132e+08     8636.089    723.61929   0.54477538         5100 
    5110    9099.7195 2.5972359e+08 2.5974132e+08    8633.3101    720.58973   0.54551602         5110 
    5120    9105.2598 2.5972358e+08 2.5974132e+08    8630.6013    717.56573   0.54625659         5120 
    5130    9110.7403 2.5972358e+08 2.5974132e+08     8627.962    714.54529   0.54699714         5130 
    5140    9116.1861 2.5972358e+08 2.5974132e+08    8625.3917    711.52463   0.54773773         5140 
    5150    9121.5666 2.5972358e+08 2.5974132e+08    8622.8899    708.50841   0.54847843         5150 
    5160    9126.8834 2.5972357e+08 2.5974132e+08    8620.4562     705.5025   0.54921935         5160 
    5170    9132.1784 2.5972357e+08 2.5974132e+08      8618.09    702.50658   0.54996056         5170 
    5180    9137.4268 2.5972357e+08 2.5974132e+08    8615.7908    699.52541   0.55070219         5180 
    5190    9142.5936 2.5972356e+08 2.5974132e+08     8613.558    696.55769   0.55144435         5190 
    5200     9147.695 2.5972356e+08 2.5974132e+08    8611.3907    693.59875   0.55218713         5200 
    5210    9152.7424 2.5972356e+08 2.5974132e+08    8609.2883    690.65332   0.55293065         5210 
    5220    9157.7468 2.5972356e+08 2.5974132e+08    8607.2501    687.72514   0.55367499         5220 
    5230    9162.6909 2.5972355e+08 2.5974132e+08    8605.2754    684.80661    0.5544202         5230 
    5240    9167.5607 2.5972355e+08 2.5974132e+08    8603.3646    681.89818   0.55516587         5240 
    5250    9172.3616 2.5972355e+08 2.5974132e+08    8601.5186    679.01093    0.5559113         5250 
    5260    9177.0655 2.5972354e+08 2.5974132e+08     8599.736    676.14894    0.5566567         5260 
    5270    9181.6715 2.5972354e+08 2.5974132e+08    8598.0156    673.31075   0.55740225         5270 
    5280    9186.1874 2.5972354e+08 2.5974132e+08    8596.3559    670.48678   0.55814814         5280 
    5290    9190.5627 2.5972354e+08 2.5974132e+08     8594.756    667.68697   0.55889452         5290 
    5300     9194.817 2.5972353e+08 2.5974132e+08    8593.2148    664.91997   0.55964149         5300 
    5310    9199.0189 2.5972353e+08 2.5974132e+08    8591.7317    662.17808   0.56038912         5310 
    5320    9203.1305 2.5972353e+08 2.5974132e+08    8590.3068    659.46769   0.56113704         5320 
    5330    9207.1271 2.5972352e+08 2.5974132e+08      8588.94     656.7953   0.56188496         5330 
    5340    9211.0377 2.5972352e+08 2.5974132e+08    8587.6308    654.14701   0.56263285         5340 
    5350    9214.8578 2.5972352e+08 2.5974132e+08    8586.3784    651.52796   0.56338067         5350 
    5360    9218.6034 2.5972352e+08 2.5974132e+08    8585.1821    648.93588   0.56412845         5360 
    5370     9222.285 2.5972351e+08 2.5974132e+08     8584.041    646.35287   0.56487622         5370 
    5380    9225.8603 2.5972351e+08 2.5974132e+08    8582.9541    643.77738   0.56562408         5380 
    5390    9229.3346 2.5972351e+08 2.5974132e+08    8581.9203    641.20687   0.56637215         5390 
    5400    9232.7391 2.5972351e+08 2.5974132e+08    8580.9384    638.63597   0.56712056         5400 
    5410    9236.0502 2.597235e+08 2.5974132e+08    8580.0075    636.06931   0.56786939         5410 
    5420    9239.2597 2.597235e+08 2.5974132e+08    8579.1265    633.50831   0.56861873         5420 
    5430    9242.4006 2.597235e+08 2.5974132e+08    8578.2947     630.9494    0.5693686         5430 
    5440    9245.4539 2.597235e+08 2.5974132e+08    8577.5112    628.39849   0.57011902         5440 
    5450    9248.4039 2.597235e+08 2.5974132e+08    8576.7754    625.86097   0.57086997         5450 
    5460     9251.283 2.5972349e+08 2.5974132e+08     8576.087    623.32819   0.57162128         5460 
    5470    9254.1009 2.5972349e+08 2.5974132e+08    8575.4458    620.80374   0.57237264         5470 
    5480    9256.8466 2.5972349e+08 2.5974132e+08    8574.8511    618.29274   0.57312415         5480 
    5490    9259.5191 2.5972349e+08 2.5974132e+08    8574.3025    615.78848   0.57387564         5490 
    5500    9262.1203 2.5972348e+08 2.5974132e+08    8573.7996    613.29572   0.57462693         5500 
    5510    9264.6246 2.5972348e+08 2.5974132e+08    8573.3418    610.81933   0.57537813         5510 
    5520    9267.0098 2.5972348e+08 2.5974132e+08    8572.9285    608.36127   0.57612937         5520 
    5530    9269.2937 2.5972348e+08 2.5974132e+08    8572.5593    605.91793   0.57688083         5530 
    5540    9271.4677 2.5972348e+08 2.5974132e+08    8572.2338    603.48958   0.57763266         5540 
    5550     9273.517 2.5972348e+08 2.5974132e+08    8571.9518    601.08014   0.57838505         5550 
    5560     9275.476 2.5972347e+08 2.5974132e+08     8571.713    598.68445   0.57913812         5560 
    5570    9277.3684 2.5972347e+08 2.5974132e+08    8571.5172    596.30919   0.57989196         5570 
    5580     9279.185 2.5972347e+08 2.5974132e+08    8571.3644    593.95555   0.58064661         5580 
    5590    9280.9228 2.5972347e+08 2.5974132e+08    8571.2543    591.62065   0.58140205         5590 
    5600    9282.5834 2.5972347e+08 2.5974132e+08    8571.1868    589.30553   0.58215822         5600 
    5610    9284.1801 2.5972347e+08 2.5974132e+08    8571.1616    587.01435   0.58291503         5610 
    5620     9285.723 2.5972346e+08 2.5974132e+08    8571.1784    584.74434    0.5836724         5620 
    5630    9287.2023 2.5972346e+08 2.5974132e+08    8571.2369    582.49548   0.58443022         5630 
    5640    9288.6247 2.5972346e+08 2.5974132e+08    8571.3366     580.2668   0.58518845         5640 
    5650    9289.9999 2.5972346e+08 2.5974132e+08    8571.4769    578.06247   0.58594703         5650 
    5660    9291.3386 2.5972346e+08 2.5974132e+08    8571.6572    575.88039   0.58670598         5660 
    5670    9292.6279 2.5972346e+08 2.5974132e+08    8571.8767    573.72155   0.58746533         5670 
    5680    9293.8522 2.5972345e+08 2.5974132e+08    8572.1346    571.58906   0.58822512         5680 
    5690     9295.016 2.5972345e+08 2.5974132e+08    8572.4299    569.48202    0.5889854         5690 
    5700    9296.1242 2.5972345e+08 2.5974132e+08    8572.7619    567.40111   0.58974623         5700 
    5710    9297.1609 2.5972345e+08 2.5974132e+08    8573.1295    565.34821   0.59050763         5710 
    5720    9298.1293 2.5972345e+08 2.5974132e+08    8573.5317    563.32066   0.59126959         5720 
    5730    9299.0396 2.5972345e+08 2.5974132e+08    8573.9676    561.32126   0.59203207         5730 
    5740    9299.9039 2.5972345e+08 2.5974132e+08    8574.4361     559.3497   0.59279509         5740 
    5750    9300.7153 2.5972345e+08 2.5974132e+08    8574.9361    557.40753   0.59355855         5750 
    5760    9301.4472 2.5972344e+08 2.5974132e+08    8575.4666    555.49582   0.59432239         5760 
    5770    9302.0908 2.5972344e+08 2.5974132e+08    8576.0264    553.61751   0.59508653         5770 
    5780    9302.6713 2.5972344e+08 2.5974132e+08    8576.6145     551.7683   0.59585096         5780 
    5790    9303.2194 2.5972344e+08 2.5974132e+08      8577.23    549.94832   0.59661568         5790 
    5800    9303.7196 2.5972344e+08 2.5974132e+08    8577.8722    548.15783   0.59738073         5800 
    5810    9304.1551 2.5972344e+08 2.5974132e+08    8578.5402    546.39721   0.59814618         5810 
    5820    9304.5275 2.5972344e+08 2.5974132e+08    8579.2332     544.6617   0.59891216         5820 
    5830    9304.8412 2.5972344e+08 2.5974132e+08    8579.9507    542.95187   0.59967877         5830 
    5840    9305.0961 2.5972343e+08 2.5974132e+08    8580.6918     541.2613   0.60044613         5840 
    5850    9305.2884 2.5972343e+08 2.5974132e+08    8581.4559     539.5906   0.60121435         5850 
    5860    9305.4107 2.5972343e+08 2.5974132e+08    8582.2422    537.94083    0.6019835         5860 
    5870    9305.4654 2.5972343e+08 2.5974132e+08      8583.05    536.30913    0.6027536         5870 
    5880    9305.4577 2.5972343e+08 2.5974132e+08    8583.8785    534.69325   0.60352466         5880 
    5890    9305.3788 2.5972343e+08 2.5974132e+08     8584.727    533.09973   0.60429661         5890 
    5900    9305.2297 2.5972343e+08 2.5974132e+08    8585.5947    531.53386   0.60506938         5900 
    5910    9305.0334 2.5972343e+08 2.5974132e+08    8586.4808    529.98602   0.60584285         5910 
    5920    9304.7869 2.5972343e+08 2.5974132e+08    8587.3847    528.45989   0.60661692         5920 
    5930    9304.4744 2.5972343e+08 2.5974132e+08    8588.3052    526.96744   0.60739145         5930 
    5940    9304.1102 2.5972343e+08 2.5974132e+08    8589.2417    525.50681   0.60816634         5940 
    5950    9303.7115 2.5972343e+08 2.5974132e+08    8590.1932    524.07911   0.60894152         5950 
    5960    9303.2697 2.5972343e+08 2.5974132e+08    8591.1587    522.68505   0.60971694         5960 
    5970    9302.7816 2.5972343e+08 2.5974132e+08    8592.1376    521.32385   0.61049259         5970 
    5980    9302.2471 2.5972343e+08 2.5974132e+08     8593.129      519.992   0.61126848         5980 
    5990    9301.6543 2.5972342e+08 2.5974132e+08     8594.132    518.69273   0.61204465         5990 
    6000    9300.9823 2.5972342e+08 2.5974132e+08    8595.1461    517.43078   0.61282115         6000 
    6010    9300.2392 2.5972342e+08 2.5974132e+08    8596.1705    516.20303   0.61359802         6010 
    6020    9299.4443 2.5972342e+08 2.5974132e+08    8597.2045    515.00913   0.61437532         6020 
    6030    9298.5963 2.5972342e+08 2.5974132e+08    8598.2477    513.85283   0.61515306         6030 
    6040    9297.7031 2.5972342e+08 2.5974132e+08    8599.2993    512.73381    0.6159313         6040 
    6050    9296.7865 2.5972342e+08 2.5974132e+08    8600.3589    511.64475   0.61671004         6050 
    6060    9295.8395 2.5972342e+08 2.5974132e+08    8601.4257    510.58767   0.61748932         6060 
    6070    9294.8539 2.5972342e+08 2.5974132e+08    8602.4992    509.56176   0.61826914         6070 
    6080    9293.8348 2.5972342e+08 2.5974132e+08    8603.5789    508.56892   0.61904953         6080 
    6090     9292.777 2.5972342e+08 2.5974132e+08    8604.6642    507.60648   0.61983052         6090 
    6100    9291.6629 2.5972342e+08 2.5974132e+08    8605.7546    506.68113   0.62061213         6100 
    6110    9290.4721 2.5972342e+08 2.5974132e+08    8606.8495    505.79826   0.62139439         6110 
    6120    9289.2078 2.5972342e+08 2.5974132e+08    8607.9485    504.96427   0.62217731         6120 
    6130    9287.8897 2.5972342e+08 2.5974132e+08     8609.051    504.17681   0.62296085         6130 
    6140    9286.5186 2.5972342e+08 2.5974132e+08    8610.1565    503.43234   0.62374485         6140 
    6150    9285.0871 2.5972342e+08 2.5974132e+08    8611.2646    502.72967   0.62452931         6150 
    6160    9283.5956 2.5972342e+08 2.5974132e+08     8612.375    502.06187   0.62531423         6160 
    6170    9282.0653 2.5972343e+08 2.5974132e+08    8613.4876    501.42355    0.6260996         6170 
    6180    9280.4976 2.5972343e+08 2.5974132e+08    8614.6019    500.81382   0.62688544         6180 
    6190    9278.8795 2.5972343e+08 2.5974132e+08    8615.7178    500.23219   0.62767176         6190 
    6200    9277.2257 2.5972343e+08 2.5974132e+08     8616.835    499.67339   0.62845858         6200 
    6210     9275.543 2.5972343e+08 2.5974132e+08    8617.9533    499.13819   0.62924593         6210 
    6220    9273.8132 2.5972343e+08 2.5974132e+08    8619.0726    498.63399   0.63003388         6220 
    6230    9272.0486 2.5972343e+08 2.5974132e+08    8620.1927    498.15533   0.63082244         6230 
    6240     9270.245 2.5972343e+08 2.5974132e+08    8621.3133    497.69907   0.63161168         6240 
    6250    9268.3645 2.5972343e+08 2.5974132e+08    8622.4343    497.27754   0.63240162         6250 
    6260    9266.4083 2.5972343e+08 2.5974132e+08    8623.5554    496.89171   0.63319227         6260 
    6270    9264.4209 2.5972343e+08 2.5974132e+08    8624.6767    496.53296   0.63398363         6270 
    6280     9262.419 2.5972343e+08 2.5974132e+08    8625.7981    496.20591    0.6347757         6280 
    6290    9260.3768 2.5972343e+08 2.5974132e+08    8626.9194    495.91646   0.63556843         6290 
    6300     9258.289 2.5972343e+08 2.5974132e+08    8628.0404    495.66147   0.63636179         6300 
    6310    9256.1844 2.5972344e+08 2.5974132e+08     8629.161    495.42966   0.63715574         6310 
    6320     9254.074 2.5972344e+08 2.5974132e+08     8630.281    495.21721   0.63795023         6320 
    6330    9251.9358 2.5972344e+08 2.5974132e+08    8631.4002    495.02192   0.63874524         6330 
    6340    9249.7586 2.5972344e+08 2.5974132e+08    8632.5184      494.842   0.63954075         6340 
    6350    9247.5577 2.5972344e+08 2.5974132e+08    8633.6354    494.67544   0.64033676         6350 
    6360    9245.3347 2.5972344e+08 2.5974132e+08     8634.751    494.52404   0.64113328         6360 
    6370    9243.0835 2.5972344e+08 2.5974132e+08    8635.8651    494.38959   0.64193031         6370 
    6380    9240.8027 2.5972344e+08 2.5974132e+08    8636.9774    494.27252   0.64272787         6380 
    6390    9238.4913 2.5972344e+08 2.5974132e+08    8638.0876    494.17443   0.64352596         6390 
    6400    9236.1615 2.5972345e+08 2.5974132e+08    8639.1956    494.09445   0.64432461         6400 
    6410    9233.8387 2.5972345e+08 2.5974132e+08    8640.3012    494.03103    0.6451238         6410 
    6420    9231.5319 2.5972345e+08 2.5974132e+08    8641.4042    493.98281   0.64592353         6420 
    6430    9229.2273 2.5972345e+08 2.5974132e+08    8642.5045     493.9503   0.64672376         6430 
    6440    9226.9166 2.5972345e+08 2.5974132e+08    8643.6017    493.92352   0.64752439         6440 
    6450    9224.6007 2.5972345e+08 2.5974132e+08    8644.6957    493.90391   0.64832542         6450 
    6460    9222.2893 2.5972345e+08 2.5974132e+08    8645.7864    493.88844   0.64912685         6460 
    6470    9219.9863 2.5972345e+08 2.5974132e+08    8646.8735    493.87977   0.64992869         6470 
    6480    9217.6848 2.5972346e+08 2.5974132e+08    8647.9568    493.88052   0.65073095         6480 
    6490    9215.3885 2.5972346e+08 2.5974132e+08    8649.0362    493.88522   0.65153365         6490 
    6500    9213.0923 2.5972346e+08 2.5974132e+08    8650.1115    493.89577   0.65233681         6500 
    6510    9210.7729 2.5972346e+08 2.5974132e+08    8651.1824    493.91533   0.65314046         6510 
    6520    9208.4307 2.5972346e+08 2.5974132e+08     8652.249     493.9457   0.65394465         6520 
    6530    9206.0865 2.5972346e+08 2.5974132e+08     8653.311    493.98092    0.6547494         6530 
    6540    9203.7456 2.5972346e+08 2.5974132e+08    8654.3687    494.02266   0.65555476         6540 
    6550    9201.3972 2.5972346e+08 2.5974132e+08    8655.4219    494.06919   0.65636078         6550 
    6560    9199.0346 2.5972347e+08 2.5974132e+08    8656.4708    494.11606   0.65716748         6560 
    6570    9196.6576 2.5972347e+08 2.5974132e+08    8657.5153    494.15993    0.6579749         6570 
    6580    9194.2781 2.5972347e+08 2.5974132e+08    8658.5555    494.19828   0.65878308         6580 
    6590    9191.9006 2.5972347e+08 2.5974132e+08    8659.5911    494.22882   0.65959186         6590 
    6600    9189.5134 2.5972347e+08 2.5974132e+08    8660.6219     494.2535   0.66040117         6600 
    6610    9187.1181 2.5972347e+08 2.5974132e+08    8661.6479    494.27339   0.66121099         6610 
    6620    9184.7342 2.5972347e+08 2.5974132e+08    8662.6692    494.28342   0.66202135         6620 
    6630    9182.3578 2.5972347e+08 2.5974132e+08    8663.6856    494.28433   0.66283224         6630 
    6640    9179.9653 2.5972348e+08 2.5974132e+08    8664.6973    494.28378   0.66364366         6640 
    6650    9177.5506 2.5972348e+08 2.5974132e+08    8665.7043    494.28009   0.66445563         6650 
    6660    9175.1156 2.5972348e+08 2.5974132e+08    8666.7064    494.26819   0.66526814         6660 
    6670    9172.6408 2.5972348e+08 2.5974132e+08    8667.7038    494.25754   0.66608119         6670 
    6680    9170.1247 2.5972348e+08 2.5974132e+08    8668.6963    494.25335   0.66689476         6680 
    6690    9167.5984 2.5972348e+08 2.5974132e+08    8669.6841    494.25033   0.66770883         6690 
    6700    9165.0748 2.5972348e+08 2.5974132e+08    8670.6674     494.2455   0.66852338         6700 
    6710    9162.5403 2.5972349e+08 2.5974132e+08    8671.6462    494.25222   0.66933841         6710 
    6720    9159.9895 2.5972349e+08 2.5974132e+08    8672.6207     494.2675    0.6701539         6720 
    6730    9157.4267 2.5972349e+08 2.5974132e+08    8673.5911    494.28678   0.67096984         6730 
    6740    9154.8482 2.5972349e+08 2.5974132e+08    8674.5577    494.31311   0.67178625         6740 
    6750    9152.2328 2.5972349e+08 2.5974132e+08    8675.5208    494.35095   0.67260314         6750 
    6760    9149.5658 2.5972349e+08 2.5974132e+08    8676.4806    494.40089   0.67342052         6760 
    6770      9146.85 2.597235e+08 2.5974132e+08    8677.4375    494.46187   0.67423843         6770 
    6780    9144.0904 2.597235e+08 2.5974132e+08    8678.3918    494.53569   0.67505688         6780 
    6790     9141.289 2.597235e+08 2.5974132e+08    8679.3439    494.62645    0.6758759         6790 
    6800    9138.4442 2.597235e+08 2.5974132e+08    8680.2941    494.73738   0.67669548         6800 
    6810    9135.5587 2.597235e+08 2.5974132e+08    8681.2426    494.87458   0.67751564         6810 
    6820    9132.6438 2.5972351e+08 2.5974132e+08    8682.1897    495.04242   0.67833636         6820 
    6830    9129.7236 2.5972351e+08 2.5974132e+08    8683.1358    495.23649   0.67915765         6830 
    6840    9126.7942 2.5972351e+08 2.5974132e+08    8684.0811    495.45607   0.67997948         6840 
    6850    9123.8352 2.5972351e+08 2.5974132e+08    8685.0259    495.70959   0.68080181         6850 
    6860    9120.8434 2.5972351e+08 2.5974132e+08    8685.9705    495.99739   0.68162462         6860 
    6870    9117.8366 2.5972352e+08 2.5974132e+08    8686.9154    496.31196   0.68244792         6870 
    6880    9114.8201 2.5972352e+08 2.5974132e+08    8687.8612    496.65402   0.68327173         6880 
    6890    9111.7726 2.5972352e+08 2.5974132e+08    8688.8083    497.03016   0.68409608         6890 
    6900    9108.6788 2.5972352e+08 2.5974132e+08    8689.7572    497.43535   0.68492097         6900 
    6910    9105.5401 2.5972352e+08 2.5974132e+08    8690.7083    497.86789   0.68574641         6910 
    6920    9102.3609 2.5972353e+08 2.5974132e+08    8691.6623    498.32852   0.68657239         6920 
    6930    9099.1423 2.5972353e+08 2.5974132e+08    8692.6197     498.8159   0.68739891         6930 
    6940    9095.8718 2.5972353e+08 2.5974132e+08     8693.581    499.32959   0.68822597         6940 
    6950    9092.5452 2.5972353e+08 2.5974132e+08     8694.547    499.86665   0.68905355         6950 
    6960    9089.1677 2.5972354e+08 2.5974132e+08    8695.5182     500.4257   0.68988167         6960 
    6970    9085.7507 2.5972354e+08 2.5974132e+08    8696.4954    501.00235   0.69071032         6970 
    6980    9082.2994 2.5972354e+08 2.5974132e+08    8697.4794    501.59425   0.69153951         6980 
    6990    9078.8123 2.5972354e+08 2.5974132e+08     8698.471    502.19823   0.69236926         6990 
    7000    9075.2778 2.5972355e+08 2.5974132e+08     8699.471    502.81468   0.69319959         7000 
    7010    9071.6898 2.5972355e+08 2.5974132e+08    8700.4803     503.4408    0.6940305         7010 
    7020    9068.0518 2.5972355e+08 2.5974132e+08    8701.4998    504.07207   0.69486202         7020 
    7030    9064.3669 2.5972355e+08 2.5974132e+08    8702.5306    504.70822   0.69569416         7030 
    7040    9060.6301 2.5972356e+08 2.5974132e+08    8703.5737    505.35171   0.69652693         7040 
    7050    9056.8449 2.5972356e+08 2.5974132e+08      8704.63    506.00304   0.69736033         7050 
    7060    9053.0203 2.5972356e+08 2.5974132e+08    8705.7006    506.66005   0.69819435         7060 
    7070     9049.154 2.5972356e+08 2.5974132e+08    8706.7865    507.32611   0.69902899         7070 
    7080    9045.2433 2.5972357e+08 2.5974132e+08    8707.8885    508.00097   0.69986422         7080 
    7090    9041.2915 2.5972357e+08 2.5974132e+08    8709.0078    508.68215   0.70070002         7090 
    7100    9037.2983 2.5972357e+08 2.5974132e+08    8710.1452    509.37092   0.70153637         7100 
    7110    9033.2711 2.5972358e+08 2.5974132e+08    8711.3017    510.06922   0.70237324         7110 
    7120    9029.2208 2.5972358e+08 2.5974132e+08    8712.4782     510.7757   0.70321061         7120 
    7130    9025.1459 2.5972358e+08 2.5974132e+08    8713.6759     511.4883   0.70404845         7130 
    7140    9021.0351 2.5972358e+08 2.5974132e+08    8714.8956     512.2081   0.70488674         7140 
    7150    9016.8809 2.5972359e+08 2.5974132e+08     8716.138    512.93983   0.70572547         7150 
    7160    9012.6901 2.5972359e+08 2.5974132e+08    8717.4041    513.68103   0.70656461         7160 
    7170    9008.4759 2.5972359e+08 2.5974132e+08    8718.6947    514.43088   0.70740418         7170 
    7180    9004.2473 2.597236e+08 2.5974132e+08    8720.0107     515.1918   0.70824415         7180 
    7190    9000.0047 2.597236e+08 2.5974132e+08    8721.3528    515.96368   0.70908455         7190 
    7200    8995.7421 2.597236e+08 2.5974132e+08    8722.7218    516.74643   0.70992539         7200 
    7210    8991.4462 2.5972361e+08 2.5974132e+08    8724.1186    517.54218   0.71076668         7210 
    7220    8987.1139 2.5972361e+08 2.5974132e+08    8725.5438    518.35213   0.71160844         7220 
    7230    8982.7568 2.5972361e+08 2.5974132e+08    8726.9982    519.17114   0.71245071         7230 
    7240    8978.3787 2.5972361e+08 2.5974132e+08    8728.4825    519.99779   0.71329349         7240 
    7250    8973.9681 2.5972362e+08 2.5974132e+08    8729.9973    520.83814   0.71413682         7250 
    7260    8969.5162 2.5972362e+08 2.5974132e+08    8731.5432    521.69197   0.71498072         7260 
    7270    8965.0277 2.5972362e+08 2.5974132e+08    8733.1207    522.55611    0.7158252         7270 
    7280    8960.5084 2.5972363e+08 2.5974132e+08    8734.7303    523.43038   0.71667026         7280 
    7290    8955.9548 2.5972363e+08 2.5974132e+08    8736.3725    524.31774   0.71751592         7290 
    7300    8951.3644 2.5972363e+08 2.5974132e+08    8738.0478    525.21794   0.71836216         7300 
    7310    8946.7394 2.5972363e+08 2.5974132e+08    8739.7565    526.12917   0.71920897         7310 
[...]
    9400    7926.0743 2.5972411e+08 2.5974132e+08    9287.5502    428.73446   0.84106263         9400 
    9410    7922.8111 2.5972411e+08 2.5974132e+08     9289.823    427.91874   0.84148341         9410 
    9420    7919.5285 2.5972411e+08 2.5974132e+08    9292.1008    427.05508    0.8419067         9420 
    9430    7916.0016 2.5972411e+08 2.5974132e+08    9294.3663    426.16471    0.8423293         9430 
    9440    7912.3181 2.5972411e+08 2.5974132e+08     9296.563    425.29674   0.84274062         9440 
    9450    7908.6394 2.5972411e+08 2.5974132e+08     9298.713    424.40559   0.84314472         9450 
    9460    7905.0856 2.5972411e+08 2.5974132e+08    9300.8379    423.46704   0.84354565         9460 
    9470    7901.7111 2.5972412e+08 2.5974132e+08    9302.9482    422.49961   0.84394535         9470 
    9480    7898.5366 2.5972412e+08 2.5974132e+08    9305.0456    421.52386   0.84434416         9480 
    9490     7895.554 2.5972412e+08 2.5974132e+08    9307.1285    420.55751   0.84474177         9490 
    9500     7892.655 2.5972412e+08 2.5974132e+08    9309.1942    419.59864   0.84513768         9500 
    9510    7889.7173 2.5972412e+08 2.5974132e+08    9311.2421    418.66297   0.84553176         9510 
    9520    7886.7266 2.5972412e+08 2.5974132e+08    9313.2749    417.75246   0.84592454         9520 
    9530     7883.697 2.5972412e+08 2.5974132e+08    9315.2984    416.86917   0.84631713         9530 
    9540    7880.6318 2.5972412e+08 2.5974132e+08    9317.3191    416.01051   0.84671085         9540 
    9550    7877.4974 2.5972412e+08 2.5974132e+08    9319.3446    415.15921   0.84710719         9550 
    9560    7874.3034 2.5972413e+08 2.5974132e+08    9321.3816    414.29296   0.84750757         9560 
    9570    7871.1178 2.5972413e+08 2.5974132e+08    9323.4355    413.39291    0.8479131         9570 
    9580    7868.0302 2.5972413e+08 2.5974132e+08    9325.5089    412.44183   0.84832439         9580 
    9590    7865.0196 2.5972413e+08 2.5974132e+08    9327.6007    411.45093   0.84874133         9590 
    9600    7861.9573 2.5972413e+08 2.5974132e+08    9329.6997    410.43398   0.84916179         9600 
    9610    7858.7674 2.5972413e+08 2.5974132e+08    9331.7736    409.42237    0.8495793         9610 
    9620    7855.4604 2.5972413e+08 2.5974132e+08    9333.8228     408.4213   0.84999395         9620 
    9630    7852.1198 2.5972413e+08 2.5974132e+08     9335.851    407.42448   0.85040646         9630 
    9640    7848.8366 2.5972413e+08 2.5974132e+08    9337.8606    406.41957   0.85081729         9640 
    9650    7845.7182 2.5972414e+08 2.5974132e+08    9339.8526    405.40321   0.85122664         9650 
    9660    7842.7855 2.5972414e+08 2.5974132e+08    9341.8277    404.37453   0.85163465         9660 
    9670    7839.9256 2.5972414e+08 2.5974132e+08    9343.7871    403.34164    0.8520416         9670 
    9680     7837.029 2.5972414e+08 2.5974132e+08    9345.7329    402.32977   0.85244789         9680 
    9690    7834.0465 2.5972414e+08 2.5974132e+08    9347.6679    401.36392   0.85285416         9690 
    9700     7830.953 2.5972414e+08 2.5974132e+08    9349.5962     400.4411   0.85326127         9700 
    9710    7827.7717 2.5972414e+08 2.5974132e+08    9351.5224    399.54397   0.85367026         9710 
    9720    7824.5781 2.5972414e+08 2.5974132e+08    9353.4508     398.6565   0.85408211         9720 
    9730    7821.4325 2.5972414e+08 2.5974132e+08    9355.3843    397.76969   0.85449753         9730 
    9740    7818.3475 2.5972415e+08 2.5974132e+08    9357.3234    396.89219    0.8549167         9740 
    9750    7815.2899 2.5972415e+08 2.5974132e+08    9359.2658    396.00601   0.85533919         9750 
    9760    7812.2033 2.5972415e+08 2.5974132e+08    9361.2018    395.12563   0.85576301         9760 
    9770    7808.9986 2.5972415e+08 2.5974132e+08    9363.1302    394.25342   0.85618788         9770 
    9780    7805.6653 2.5972415e+08 2.5974132e+08    9365.0497    393.37799   0.85661358         9780 
    9790    7802.3013 2.5972415e+08 2.5974132e+08    9366.9506    392.49677   0.85703799         9790 
    9800    7798.9174 2.5972415e+08 2.5974132e+08    9368.8292    391.60913   0.85746024         9800 
    9810    7795.4826 2.5972415e+08 2.5974132e+08    9370.6834    390.71636   0.85787982         9810 
    9820    7792.0378 2.5972416e+08 2.5974132e+08    9372.5128    389.81881   0.85829663         9820 
    9830    7788.6452 2.5972416e+08 2.5974132e+08    9374.3186    388.91612   0.85871091         9830 
    9840    7785.2832 2.5972416e+08 2.5974132e+08    9376.1032    388.01281   0.85912316         9840 
    9850    7781.9261 2.5972416e+08 2.5974132e+08    9377.8696    387.10238   0.85953408         9850 
    9860    7778.5811 2.5972416e+08 2.5974132e+08    9379.6214    386.19649   0.85994448         9860 
    9870     7775.307 2.5972416e+08 2.5974132e+08    9381.3619    385.28277   0.86035514         9870 
    9880    7772.1532 2.5972417e+08 2.5974132e+08    9383.0943    384.36158   0.86076689         9880 
    9890    7769.1056 2.5972417e+08 2.5974132e+08    9384.8214    383.43795   0.86118043         9890 
    9900    7766.0765 2.5972417e+08 2.5974132e+08    9386.5456    382.52401   0.86159636         9900 
    9910    7762.9997 2.5972417e+08 2.5974132e+08     9388.268    381.61983   0.86201509         9910 
    9920    7759.9105 2.5972417e+08 2.5974132e+08    9389.9892    380.71638   0.86243681         9920 
    9930    7756.9617 2.5972417e+08 2.5974132e+08     9391.709    379.79253   0.86286153         9930 
    9940    7754.1922 2.5972417e+08 2.5974132e+08    9393.4262    378.83523   0.86328911         9940 
    9950    7751.4682 2.5972417e+08 2.5974132e+08    9395.1394    377.86157   0.86371923         9950 
    9960    7748.7505 2.5972418e+08 2.5974132e+08    9396.8465    376.87725   0.86415145         9960 
    9970    7746.0524 2.5972418e+08 2.5974132e+08    9398.5447    375.89721   0.86458512         9970 
    9980    7743.3443 2.5972418e+08 2.5974132e+08    9400.2283    374.94664   0.86501885         9980 
    9990    7740.6694 2.5972418e+08 2.5974132e+08    9401.8978    374.00785   0.86545275         9990 
   10000    7738.0854 2.5972418e+08 2.5974132e+08    9403.5548    373.07103   0.86588732        10000 
   10010    7735.5762 2.5972418e+08 2.5974132e+08    9405.1962    372.13057   0.86632175        10010 
   10020    7733.1395 2.5972418e+08 2.5974132e+08    9406.8197    371.18449   0.86675541        10020 
   10030    7730.7679 2.5972418e+08 2.5974132e+08    9408.4246    370.22688   0.86718815        10030 
   10040    7728.3925 2.5972418e+08 2.5974132e+08    9410.0106    369.26859   0.86761985        10040 
   10050    7725.9639 2.5972418e+08 2.5974132e+08    9411.5778    368.31236   0.86805053        10050 
   10060    7723.5058 2.5972418e+08 2.5974132e+08    9413.1267    367.37738   0.86848029        10060 
   10070    7721.0886 2.5972418e+08 2.5974132e+08    9414.6577    366.45281    0.8689093        10070 
   10080    7718.7598 2.5972419e+08 2.5974132e+08    9416.1718    365.54847   0.86933778        10080 
   10090    7716.5122 2.5972419e+08 2.5974132e+08    9417.6697     364.6648   0.86976598        10090 
   10100    7714.3565 2.5972419e+08 2.5974132e+08    9419.1524    363.80205   0.87019417        10100 
   10110    7712.2621 2.5972419e+08 2.5974132e+08    9420.6208    362.95618   0.87062262        10110 
   10120    7710.1703 2.5972419e+08 2.5974132e+08    9422.0757    362.12632   0.87105161        10120 
   10130    7708.0515 2.5972419e+08 2.5974132e+08    9423.5178     361.3117    0.8714814        10130 
   10140    7705.8775 2.5972419e+08 2.5974132e+08    9424.9476    360.52041   0.87191217        10140 
   10150    7703.6401 2.5972419e+08 2.5974132e+08    9426.3654    359.75835   0.87234406        10150 
   10160    7701.3803 2.5972419e+08 2.5974132e+08    9427.7708    359.01237   0.87277703        10160 
   10170    7699.1366 2.5972419e+08 2.5974132e+08    9429.1635    358.27431   0.87321102        10170 
   10180    7696.9201 2.5972419e+08 2.5974132e+08    9430.5427    357.53736   0.87364585        10180 
   10190    7694.7311 2.5972419e+08 2.5974132e+08    9431.9078    356.80781   0.87408132        10190 
   10200    7692.5593 2.5972419e+08 2.5974132e+08     9433.257    356.09784   0.87451695        10200 
   10210    7690.3905 2.597242e+08 2.5974132e+08    9434.5861    355.41843   0.87495139        10210 
   10220    7688.2264 2.597242e+08 2.5974132e+08    9435.8953    354.76272   0.87538462        10220 
   10230    7686.1002 2.597242e+08 2.5974132e+08    9437.1854    354.12819    0.8758169        10230 
   10240    7684.0285 2.597242e+08 2.5974132e+08    9438.4573     353.5195   0.87624853        10240 
   10250    7681.9915 2.597242e+08 2.5974132e+08    9439.7119    352.93502   0.87667982        10250 
   10260    7679.9619 2.597242e+08 2.5974132e+08    9440.9499    352.36949   0.87711105        10260 
   10270    7677.9357 2.597242e+08 2.5974132e+08    9442.1722    351.82551    0.8775425        10270 
   10280    7675.9126 2.597242e+08 2.5974132e+08    9443.3791    351.31582   0.87797434        10280 
   10290    7673.8572 2.597242e+08 2.5974132e+08    9444.5675    350.84155    0.8784055        10290 
   10300    7671.7501 2.597242e+08 2.5974132e+08    9445.7355    350.40033   0.87883523        10300 
   10310    7669.5828 2.597242e+08 2.5974132e+08    9446.8841    349.99168   0.87926387        10310 
   10320    7667.3435 2.5972421e+08 2.5974132e+08    9448.0143    349.61507    0.8796918        10320 
   10330    7665.0425 2.5972421e+08 2.5974132e+08     9449.127    349.26067   0.88011935        10330 
   10340    7662.7527 2.5972421e+08 2.5974132e+08     9450.223    348.91925   0.88054681        10340 
   10350    7660.5516 2.5972421e+08 2.5974132e+08    9451.3029    348.56745   0.88097443        10350 
   10360    7658.4639 2.5972421e+08 2.5974132e+08     9452.367    348.19461    0.8814024        10360 
   10370     7656.466 2.5972421e+08 2.5974132e+08    9453.4155     347.7986   0.88183087        10370 
   10380    7654.5076 2.5972421e+08 2.5974132e+08    9454.4488    347.38731   0.88225992        10380 
   10390    7652.5491 2.5972421e+08 2.5974132e+08    9455.4667    346.97033   0.88268964        10390 
   10400    7650.5845 2.5972421e+08 2.5974132e+08    9456.4686    346.55587   0.88311978        10400 
   10410    7648.5861 2.5972421e+08 2.5974132e+08    9457.4526    346.16053   0.88354953        10410 
   10420    7646.5165 2.5972422e+08 2.5974132e+08    9458.4187    345.79946   0.88397894        10420 
   10430     7644.376 2.5972422e+08 2.5974132e+08    9459.3673    345.47896    0.8844082        10430 
   10440    7642.1855 2.5972422e+08 2.5974132e+08    9460.2989    345.19853   0.88483749        10440 
   10450    7639.9522 2.5972422e+08 2.5974132e+08    9461.2137    344.95268   0.88526698        10450 
   10460    7637.6953 2.5972422e+08 2.5974132e+08    9462.1108    344.73889   0.88569624        10460 
   10470    7635.4781 2.5972422e+08 2.5974132e+08    9462.9889    344.54779   0.88612476        10470 
   10480    7633.3353 2.5972422e+08 2.5974132e+08    9463.8484    344.36578   0.88655262        10480 
   10490    7631.2631 2.5972422e+08 2.5974132e+08    9464.6894    344.19137   0.88697992        10490 
   10500    7629.2225 2.5972423e+08 2.5974132e+08    9465.5122    344.02626   0.88740677        10500 
   10510    7627.1927 2.5972423e+08 2.5974132e+08     9466.317    343.86954   0.88783334        10510 
   10520    7625.1547 2.5972423e+08 2.5974132e+08    9467.1043    343.71492   0.88825979        10520 
   10530    7623.0779 2.5972423e+08 2.5974132e+08    9467.8741     343.5635    0.8886863        10530 
   10540    7620.9741 2.5972423e+08 2.5974132e+08    9468.6268    343.42202   0.88911301        10540 
   10550    7618.8623 2.5972423e+08 2.5974132e+08    9469.3624    343.28993   0.88954007        10550 
   10560    7616.7451 2.5972423e+08 2.5974132e+08     9470.081    343.16553   0.88996756        10560 
   10570    7614.6249 2.5972424e+08 2.5974132e+08    9470.7822    343.04648   0.89039526        10570 
   10580    7612.5333 2.5972424e+08 2.5974132e+08    9471.4655    342.92346   0.89082283        10580 
   10590    7610.4449 2.5972424e+08 2.5974132e+08    9472.1307    342.80603    0.8912503        10590 
   10600    7608.2924 2.5972424e+08 2.5974132e+08    9472.7778    342.69997   0.89167764        10600 
   10610     7606.057 2.5972424e+08 2.5974132e+08    9473.4069    342.61503   0.89210485        10610 
   10620    7603.7839 2.5972424e+08 2.5974132e+08     9474.018     342.5462    0.8925319        10620 
   10630    7601.5236 2.5972424e+08 2.5974132e+08    9474.6109    342.48859   0.89295877        10630 
   10640    7599.2805 2.5972425e+08 2.5974132e+08    9475.1856    342.44623   0.89338547        10640 
   10650    7597.0533 2.5972425e+08 2.5974132e+08    9475.7422    342.41014   0.89381196        10650 
   10660    7594.8568 2.5972425e+08 2.5974132e+08    9476.2806    342.37699   0.89423825        10660 
   10670    7592.7089 2.5972425e+08 2.5974132e+08    9476.8009    342.34424   0.89466431        10670 
   10680     7590.625 2.5972425e+08 2.5974132e+08    9477.3031     342.3108   0.89509014        10680 
   10690    7588.6069 2.5972425e+08 2.5974132e+08    9477.7871    342.27008   0.89551571        10690 
   10700    7586.6423 2.5972426e+08 2.5974132e+08     9478.253    342.22813   0.89594102        10700 
   10710    7584.7051 2.5972426e+08 2.5974132e+08    9478.7009    342.18387   0.89636607        10710 
   10720    7582.7741 2.5972426e+08 2.5974132e+08    9479.1306    342.14013   0.89679085        10720 
   10730    7580.8475 2.5972426e+08 2.5974132e+08    9479.5424    342.10122   0.89721538        10730 
   10740    7578.9367 2.5972426e+08 2.5974132e+08    9479.9363     342.0681   0.89763966        10740 
   10750    7577.0458 2.5972426e+08 2.5974132e+08    9480.3123    342.04219    0.8980637        10750 
   10760    7575.1694 2.5972426e+08 2.5974132e+08    9480.6704    342.03234   0.89848751        10760 
   10770      7573.29 2.5972427e+08 2.5974132e+08    9481.0108    342.04942   0.89891111        10770 
   10780    7571.3916 2.5972427e+08 2.5974132e+08    9481.3334    342.09597   0.89933451        10780 
   10790    7569.4987 2.5972427e+08 2.5974132e+08    9481.6384     342.1652    0.8997577        10790 
   10800    7567.6436 2.5972427e+08 2.5974132e+08    9481.9257     342.2593   0.90018069        10800 
   10810    7565.8389 2.5972427e+08 2.5974132e+08    9482.1954    342.36907   0.90060348        10810 
   10820    7564.0689 2.5972427e+08 2.5974132e+08    9482.4476    342.51086   0.90102608        10820 
   10830    7562.3348 2.5972428e+08 2.5974132e+08    9482.6823    342.67727   0.90144848        10830 
   10840    7560.6404 2.5972428e+08 2.5974132e+08    9482.8997    342.86358   0.90187072        10840 
   10850    7558.9677 2.5972428e+08 2.5974132e+08    9483.0998    343.06349   0.90229279        10850 
   10860    7557.2991 2.5972428e+08 2.5974132e+08    9483.2826    343.28484    0.9027147        10860 
   10870    7555.6352 2.5972428e+08 2.5974132e+08    9483.4484    343.52234   0.90313649        10870 
   10880    7553.9695 2.5972428e+08 2.5974132e+08    9483.5972    343.77997   0.90355816        10880 
   10890    7552.2418 2.5972428e+08 2.5974132e+08     9483.729    344.06006   0.90397974        10890 
   10900    7550.3125 2.5972429e+08 2.5974132e+08     9483.844    344.37297   0.90440125        10900 
   10910    7547.9065 2.5972429e+08 2.5974132e+08    9483.9425    344.73685   0.90482272        10910 
   10920    7544.5725 2.5972429e+08 2.5974132e+08    9484.0248    345.18389   0.90524417        10920 
   10930    7539.6361 2.597243e+08 2.5974132e+08    9484.0915    345.75714   0.90566565        10930 
   10940    7532.4446 2.597243e+08 2.5974132e+08    9484.1438    346.49781   0.90608722        10940 
   10950    7522.7877 2.5972431e+08 2.5974132e+08     9484.183    347.41616   0.90650899        10950 
   10960    7511.4201 2.5972433e+08 2.5974132e+08    9484.2112    348.47961   0.90693114        10960 
   10970    7500.6938 2.5972434e+08 2.5974132e+08    9484.2305    349.46143   0.90735383        10970 
   10980    7493.1486 2.5972434e+08 2.5974132e+08    9484.2427     350.1007   0.90777629        10980 
   10990    7490.2345 2.5972435e+08 2.5974132e+08    9484.2484     350.2491   0.90817963        10990 
   11000    7490.6951 2.5972435e+08 2.5974132e+08    9484.2482     350.0142   0.90855915        11000 
   11010    7492.5487 2.5972434e+08 2.5974132e+08    9484.2423    349.61234   0.90892415        11010 
   11020    7494.3155 2.5972434e+08 2.5974132e+08    9484.2302    349.18784   0.90927299        11020 
   11030    7495.4079 2.5972434e+08 2.5974132e+08    9484.2118    348.80411   0.90960675        11030 
   11040    7495.7624 2.5972434e+08 2.5974132e+08    9484.1869    348.50708   0.90993014        11040 
   11050     7495.571 2.5972434e+08 2.5974132e+08    9484.1551    348.30892   0.91024623        11050 
   11060    7494.9995 2.5972434e+08 2.5974132e+08    9484.1165    348.19611   0.91055684        11060 
   11070    7494.1023 2.5972434e+08 2.5974132e+08     9484.071    348.15124   0.91086296        11070 
   11080    7492.7982 2.5972434e+08 2.5974132e+08    9484.0187    348.17857   0.91116542        11080 
   11090    7490.9855 2.5972435e+08 2.5974132e+08    9483.9595    348.28236   0.91146502        11090 
   11100    7488.4704 2.5972435e+08 2.5974132e+08    9483.8934    348.48333   0.91176264        11100 
   11110    7485.0879 2.5972435e+08 2.5974132e+08    9483.8204    348.77558   0.91205919        11110 
   11120    7480.8878 2.5972436e+08 2.5974132e+08    9483.7402    349.13868   0.91235556        11120 
   11130    7476.3278 2.5972436e+08 2.5974132e+08    9483.6526    349.51599    0.9126525        11130 
   11140    7472.3077 2.5972436e+08 2.5974132e+08    9483.5573    349.85275   0.91295064        11140 
   11150    7469.1845 2.5972437e+08 2.5974132e+08    9483.4542     350.1336   0.91325054        11150 
   11160    7466.6327 2.5972437e+08 2.5974132e+08    9483.3431    350.36181   0.91355261        11160 
   11170    7464.0098 2.5972437e+08 2.5974132e+08    9483.2239    350.53228   0.91385644        11170 
   11180    7461.0702 2.5972438e+08 2.5974132e+08    9483.0966    350.63523   0.91416234        11180 
   11190    7457.9874 2.5972438e+08 2.5974132e+08    9482.9611    350.67931   0.91447085        11190 
   11200    7454.3047 2.5972438e+08 2.5974132e+08    9482.8173    350.72036    0.9147825        11200 
   11210    7448.8501 2.5972439e+08 2.5974132e+08    9482.6651    350.86065   0.91509779        11210 
   11220     7440.677 2.597244e+08 2.5974132e+08    9482.5086     351.1441   0.91541024        11220 
   11230     7429.793 2.5972441e+08 2.5974132e+08    9482.3503    351.54026   0.91571678        11230 
   11240    7416.9912 2.5972442e+08 2.5974132e+08    9482.1897    352.02317    0.9160206        11240 
   11250    7403.6381 2.5972444e+08 2.5974132e+08    9482.0238    352.54849   0.91632791        11250 
   11260    7392.1533 2.5972445e+08 2.5974132e+08    9481.8458    353.02154     0.916651        11260 
   11270    7387.1416 2.5972445e+08 2.5974132e+08     9481.647    353.25082   0.91700286        11270 
   11280    7388.2642 2.5972445e+08 2.5974132e+08    9481.4563     353.1382   0.91733167        11280 
   11290    7389.6057 2.5972445e+08 2.5974132e+08    9481.2734    352.83233    0.9176387        11290 
   11300    7389.1362 2.5972445e+08 2.5974132e+08    9481.0902    352.47283   0.91793833        11300 
   11310    7387.0333 2.5972445e+08 2.5974132e+08    9480.9025    352.09467   0.91823763        11310 
   11320    7383.7982 2.5972446e+08 2.5974132e+08    9480.7078    351.71398   0.91853977        11320 
ERROR: Lost atoms: original 15702 current 15701 (../thermo.cpp:438)
Last command: run                ${nrun}
